Compiler and run-time data
===========================================================================
RASPA 2.0.50
Compiled as a 64-bits application
Compiler: gcc 13.2.0
Compile Date = Aug 27 2024, Compile Time = 15:51:33

Thu Aug 29 03:45:30 2024
Simulation started on Thursday, August 29.
The start time was 03:45 AM.

Hostname:    dydtkddhkdwk-VMware-Virtual-Platform
OS type:     Linux on x86_64
OS release:  6.8.0-41-generic
OS version:  #41-Ubuntu SMP PREEMPT_DYNAMIC Fri Aug  2 20:41:06 UTC 2024

Simulation
===========================================================================
Dimensions: 3
Random number seed: 1724870729
RASPA directory set to: /home/dydtkddhkdwk/Research/simulations/
String appended to output-files: 
Number of cycles: 20000
Number of initializing cycles: 0
Number of equilibration cycles: 0
Print every: 1000
Triclinic boundary condition applied
Timestep: 0.000500
	Degrees of freedom:                        0
	Translational Degrees of freedom:          0
	Rotational Degrees of freedom:             0
	Degrees of freedom Framework:              0


Mutual consistent basic set of units:
======================================
Unit of temperature: Kelvin
Unit of length:      1e-10 [m]
Unit of time:        1e-12 [s]
Unit of mass:        1.66054e-27 [kg]
Unit of charge:      1.60218e-19 [C/particle]

Derived units and their conversion factors:
===========================================
Unit of energy:              1.66054e-23 [J]
Unit of force:               1.66054e-13 [N]
Unit of pressure:            1.66054e+07 [Pa]
Unit of velocity:            100 [m/s]
Unit of acceleration:        1e-08 [m^2/s]
Unit of diffusion:           1e-08 [m^2/s]
Unit of dipole moment:       1.60218e-29 [C.m]
Unit of electric potential:  0.000103643 [V]
Unit of electric field:      1.03643e+06 [V]
Unit of polarizability:      1.54587e-35 [-]
Unit of Coulomb potential:   167101.0800066561  [K]
Unit of dielectric constant: 0.0000154587       [s^2 C^2/(kg m^3)]
Unit of wave vectors:        5.3088374589       [cm^1]
Boltzmann constant:          0.8314464919       [-]

Internal conversion factors:
===========================================
Energy to Kelvin:                                    1.2027242847
FH correction factor                                 2.0211930949
Heat capacity conversion factor:                    10.0000088723
From Debye to internal units:                        4.8032067991
Isothermal compressibility conversion factor:        0.0000000602

Energy conversion factors:
===========================================
From mdyne/A to kcal/mol/A^2:           143.933
From mdyne/A to kj/mol/A^2:             602.214
From mdyne/A to K/A^2:                  72429.7
From mdyne A/rad^2 to kcal/mol/deg^2:   0.0438444


Properties computed
===========================================================================
Movies: no
Radial Distribution Function: no
Number of molecules GCMC histogram: no
Histogram of the molecule positions: no
Free energy profiles: no
Pore Size Distribution Function: no
End-to-end distance: no
Histogram of the energy of the system: no
Compute thermodynamic factors: no
Framework spacing histograms: no
Residence times histograms: no
Distance histograms: no
Bend Angle histograms: no
Dihedral angle histograms: no
Angle between planes histograms: no
Molecule properties: no
Infra-red spectra: no
Mean-squared displacement using modified order-N algorithm: no
Velocity-autocorrelation function modified order-N algorithm: no
Rotational velocity-autocorrelation function modified order-N algorithm: no
Molecular orientation-autocorrelation function modified order-N algorithm: no
Bond orientation-autocorrelation function modified order-N algorithm: no
Mean-squared displacement (conventional algorithm): no
Velocity-autocorrelation function (conventional algorithm): no
3D density grid for adsorbates: no
Compute cation an/or adsorption sites: no
dcTST snapshots: no
Compute pressure and stress: no


VTK
===========================================================================
VTK fractional-range position framework atoms: [-0.001000,1.001000] [-0.001000,1.001000] [-0.001000,1.001000]
VTK fractional-range position framework bonds: [-0.151000,1.151000] [-0.151000,1.151000] [-0.151000,1.151000]
VTK fractional-range com-position adsorbate molecules: [-0.101000,1.101000] [-0.101000,1.101000] [-0.101000,1.101000]
VTK fractional-range com-position cation molecules: [-0.101000,1.101000] [-0.101000,1.101000] [-0.101000,1.101000]
	3D free energy grid made for the full simulation-cell


Thermo/Baro-stat NHC parameters
===========================================================================
External temperature: 298 [K]
Beta: 0.00403598 [energy unit]
External Pressure: 0 [Pa]


Thermostat chain-length: 3
Timescale parameter for thermostat: 0.150000 [ps]
Barostat chain-length:   3
Timescale parameter for barostat:   0.150000 [ps]

Number of Yoshida-Suzuki decomposition steps: 5
Number of respa steps: 5


Method and settings for electrostatics
===============================================================================
Dielectric constant of the medium : 1.000000
Charge from charge-equilibration: no
Ewald summation is used (exact solution of a periodic system)
Relative precision                : 1e-06
Alpha convergence parameter       : 0.265058
kvec (x,y,z)                      : 9 7 9


CFC-RXMC parameters
===========================================================================
Number of reactions: 0


Rattle parameters
===========================================================================
Distance constraint type: r^2-r^2_0
Bend angle constraint type: theta-theta_0
Dihedral angle constraint type: phi-phi_0
Inversion-bend angle constraint type: chi-chi_0
Out-of-plane distance constraint type: r-r_0


Spectra parameters
===========================================================================
Compute normal modes: no


Minimization parameters
===========================================================================
Generalized coordinates are: Cartesian center-of-mass, elements of the orientational matrix p1,p2,p3 and strain
Potential derivatives are evaluated: analytically
Translation of the system is removed from the generalized Hessian: no
Rotation of the system is removed from the generalized Hessian: no
Maximum step-length: 0.3
Convergence factor: 1
Maximum number of minimization steps: 10000
Use gradients in the line-minimizations: yes
RMS gradient tolerance: 1e-06
Maximum gradient tolerance: 1e-06

Distance constraints: 0
Angle constraints: 0
Dihedral constraints: 0

Improper dihedral constraints: 0

Inversion-bend constraints: 0

Out-of-plane constraints: 0

Harmonic distance constraints: 0
Harmonic angle constraints: 0
Harmonic dihedral constraints: 0

Dihedral mid-point measurements: 0

All framework atoms are fixed

Fixed adsorbate atoms:  
Fixed adsorbate groups (center-of-mass):  
Fixed adsorbate groups (orientation):  

Fixed cation atoms:  
Fixed cation groups (center-of-mass):  
Fixed cation groups (orientation):  


dcTST parameters
===========================================================================
Free energy profiles computed: no
Free energy profiles written every 5000 cycles
Free energy mapping: mapped to a,b,c-coordinates
BarrierPosition:       0.0000000000       0.0000000000       0.0000000000
BarrierNormal:         0.0000000000       0.0000000000       0.0000000000
Start with a molecule on top of the barrier: no
Maximum distance to barrier (e.g. distance to minumum free energy):       0.0000000000 [A]
Maximum trajectory time:      10.0000000000 [ps]
Each configuration is used with 5 different initial velocities


Cbmc parameters
===========================================================================
Biasing method: using only the VDW part
Number of trial positions:                                       10
Number of trial positions (reinsertion):                         10
Number of trial positions (partial reinsertion):                 10
Number of trial positions (identity-change):                     10
Number of trial positions (Gibbs particle transfer):             10
Number of trial positions (insertion/deletion):                  10
Number of trial positions (Widom insertion):                     10
Number of trial positions coupled Torsion-selection:             100
Number of trial positions first bead:                            10
Number of trial positions first bead (reinsertion):              10
Number of trial positions first bead (partial reinsertion):      10
Number of trial positions first bead (identity-change):          10
Number of trial positions first bead (Gibbs particle transfer):  10
Number of trial positions first bead (insertion/deletion):       10
Number of trial positions first bead (Widom insertion):          10
Number of trial moves per open bead:                             150
Target acceptance ratio small-mc scheme:                         0.400000
Energy overlap criteria:                                         1e+07
Minimal Rosenbluth factor:                                       1e-150


Pseudo atoms: 111
===========================================================================
Pseudo Atom[   0] Name UNIT     Oxidation:          Element: H    pdb-name: H    Scat. Types:   1   1 Mass=1.000000000  B-factor:0.000   
                 Charge=1.000000000          Polarization=0.000000000  [A^3] (considered a charged atom and no polarization)  Interactions: yes
                 Anisotropic factor:    0.000 [-] (Absolute), Radius:    1.000 [A], Framework-atom:  no
Pseudo Atom[   1] Name He       Oxidation: +0       Element: He   pdb-name: He   Scat. Types:   3   2 Mass=4.002602000  B-factor:1.000   
                 Charge=0.000000000          Polarization=0.000000000  [A^3] (considered a chargeless atom and no polarization)  Interactions: yes
                 Anisotropic factor:    0.000 [-] (Relative), Radius:    1.000 [A], Framework-atom:  no
Pseudo Atom[   2] Name C_co2    Oxidation: +0       Element: C    pdb-name: C    Scat. Types:   7   6 Mass=12.000000000 B-factor:1.000   
                 Charge=0.651200000          Polarization=0.000000000  [A^3] (considered a charged atom and no polarization)  Interactions: yes
                 Anisotropic factor:    0.000 [-] (Relative), Radius:    0.720 [A], Framework-atom:  no
Pseudo Atom[   3] Name O_co2    Oxidation: +0       Element: O    pdb-name: O    Scat. Types:   9   8 Mass=15.999400000 B-factor:1.000   
                 Charge=-0.325600000         Polarization=0.000000000  [A^3] (considered a charged atom and no polarization)  Interactions: yes
                 Anisotropic factor:    0.000 [-] (Relative), Radius:    0.680 [A], Framework-atom:  no
Pseudo Atom[   4] Name O_o2     Oxidation: +0       Element: O    pdb-name: O    Scat. Types:   9   8 Mass=15.999400000 B-factor:1.000   
                 Charge=-0.112000000         Polarization=0.000000000  [A^3] (considered a charged atom and no polarization)  Interactions: yes
                 Anisotropic factor:    0.000 [-] (Relative), Radius:    0.700 [A], Framework-atom:  no
Pseudo Atom[   5] Name O_com    Oxidation: +0       Element: -    pdb-name: O    Scat. Types:   0   8 Mass=0.000000000  B-factor:1.000   
                 Charge=0.224000000          Polarization=0.000000000  [A^3] (considered a charged atom and no polarization)  Interactions: yes
                 Anisotropic factor:    0.000 [-] (Relative), Radius:    0.700 [A], Framework-atom:  no
Pseudo Atom[   6] Name N_n2     Oxidation: +0       Element: N    pdb-name: N    Scat. Types:   8   7 Mass=14.006740000 B-factor:1.000   
                 Charge=-0.405000000         Polarization=0.000000000  [A^3] (considered a charged atom and no polarization)  Interactions: yes
                 Anisotropic factor:    0.000 [-] (Relative), Radius:    0.700 [A], Framework-atom:  no
Pseudo Atom[   7] Name N_com    Oxidation: +0       Element: -    pdb-name: N    Scat. Types:   0   7 Mass=0.000000000  B-factor:1.000   
                 Charge=0.810000000          Polarization=0.000000000  [A^3] (considered a charged atom and no polarization)  Interactions: yes
                 Anisotropic factor:    0.000 [-] (Relative), Radius:    0.700 [A], Framework-atom:  no
Pseudo Atom[   8] Name Ar       Oxidation: +0       Element: Ar   pdb-name: Ar   Scat. Types:  19  18 Mass=39.948000000 B-factor:1.000   
                 Charge=0.000000000          Polarization=0.000000000  [A^3] (considered a chargeless atom and no polarization)  Interactions: yes
                 Anisotropic factor:    0.000 [-] (Relative), Radius:    0.700 [A], Framework-atom:  no
Pseudo Atom[   9] Name CH4      Oxidation: +0       Element: C    pdb-name: C    Scat. Types:   7   6 Mass=16.042460000 B-factor:1.000   
                 Charge=0.000000000          Polarization=0.000000000  [A^3] (considered a chargeless atom and no polarization)  Interactions: yes
                 Anisotropic factor:    0.000 [-] (Relative), Radius:    1.000 [A], Framework-atom:  no
Pseudo Atom[  10] Name CH3      Oxidation: +0       Element: C    pdb-name: C    Scat. Types:   7   6 Mass=15.034520000 B-factor:1.000   
                 Charge=0.000000000          Polarization=0.000000000  [A^3] (considered a chargeless atom and no polarization)  Interactions: yes
                 Anisotropic factor:    0.000 [-] (Relative), Radius:    1.000 [A], Framework-atom:  no
Pseudo Atom[  11] Name CH2      Oxidation: +0       Element: C    pdb-name: C    Scat. Types:   7   6 Mass=14.026580000 B-factor:1.000   
                 Charge=0.000000000          Polarization=0.000000000  [A^3] (considered a chargeless atom and no polarization)  Interactions: yes
                 Anisotropic factor:    0.000 [-] (Relative), Radius:    1.000 [A], Framework-atom:  no
Pseudo Atom[  12] Name CH       Oxidation: +0       Element: C    pdb-name: C    Scat. Types:   7   6 Mass=13.018640000 B-factor:1.000   
                 Charge=0.000000000          Polarization=0.000000000  [A^3] (considered a chargeless atom and no polarization)  Interactions: yes
                 Anisotropic factor:    0.000 [-] (Relative), Radius:    1.000 [A], Framework-atom:  no
Pseudo Atom[  13] Name C        Oxidation: +0       Element: C    pdb-name: C    Scat. Types:   7   6 Mass=12.000000000 B-factor:1.000   
                 Charge=0.000000000          Polarization=0.000000000  [A^3] (considered a chargeless atom and no polarization)  Interactions: yes
                 Anisotropic factor:    0.000 [-] (Relative), Radius:    1.000 [A], Framework-atom:  no
Pseudo Atom[  14] Name Hw       Oxidation: +0       Element: H    pdb-name: H    Scat. Types:   1   1 Mass=1.008000000  B-factor:1.000   
                 Charge=0.556400000          Polarization=0.000000000  [A^3] (considered a charged atom and no polarization)  Interactions: yes
                 Anisotropic factor:    0.000 [-] (Relative), Radius:    0.700 [A], Framework-atom:  no
Pseudo Atom[  15] Name Ow       Oxidation: +0       Element: O    pdb-name: O    Scat. Types:   9   8 Mass=15.999400000 B-factor:1.000   
                 Charge=0.000000000          Polarization=0.000000000  [A^3] (considered a chargeless atom and no polarization)  Interactions: yes
                 Anisotropic factor:    0.000 [-] (Relative), Radius:    0.680 [A], Framework-atom:  no
Pseudo Atom[  16] Name Mw       Oxidation: +0       Element: -    pdb-name: M    Scat. Types:   0  12 Mass=0.000000000  B-factor:1.000   
                 Charge=-1.112800000         Polarization=0.000000000  [A^3] (considered a charged atom and no polarization)  Interactions:  no
                 Anisotropic factor:    0.000 [-] (Relative), Radius:    0.700 [A], Framework-atom:  no
Pseudo Atom[  17] Name La1      Oxidation:          Element: La   pdb-name: La   Scat. Types:  58  57 Mass=138.905453983 B-factor:0.000   
                 Charge=0.000000000  (-na-)  Polarization=31.100000000 [A^3] (considered a chargeless atom and no polarization)  Interactions: yes
                 Anisotropic factor:    0.000 [-] (Absolute), Radius:    1.940 [A], Framework-atom: yes (charge definition not found)
Pseudo Atom[  18] Name La2      Oxidation:          Element: La   pdb-name: La   Scat. Types:  58  57 Mass=138.905453983 B-factor:0.000   
                 Charge=0.000000000  (-na-)  Polarization=31.100000000 [A^3] (considered a chargeless atom and no polarization)  Interactions: yes
                 Anisotropic factor:    0.000 [-] (Absolute), Radius:    1.940 [A], Framework-atom: yes (charge definition not found)
Pseudo Atom[  19] Name La3      Oxidation:          Element: La   pdb-name: La   Scat. Types:  58  57 Mass=138.905453983 B-factor:0.000   
                 Charge=0.000000000  (-na-)  Polarization=31.100000000 [A^3] (considered a chargeless atom and no polarization)  Interactions: yes
                 Anisotropic factor:    0.000 [-] (Absolute), Radius:    1.940 [A], Framework-atom: yes (charge definition not found)
Pseudo Atom[  20] Name La4      Oxidation:          Element: La   pdb-name: La   Scat. Types:  58  57 Mass=138.905453983 B-factor:0.000   
                 Charge=0.000000000  (-na-)  Polarization=31.100000000 [A^3] (considered a chargeless atom and no polarization)  Interactions: yes
                 Anisotropic factor:    0.000 [-] (Absolute), Radius:    1.940 [A], Framework-atom: yes (charge definition not found)
Pseudo Atom[  21] Name La5      Oxidation:          Element: La   pdb-name: La   Scat. Types:  58  57 Mass=138.905453983 B-factor:0.000   
                 Charge=0.000000000  (-na-)  Polarization=31.100000000 [A^3] (considered a chargeless atom and no polarization)  Interactions: yes
                 Anisotropic factor:    0.000 [-] (Absolute), Radius:    1.940 [A], Framework-atom: yes (charge definition not found)
Pseudo Atom[  22] Name La6      Oxidation:          Element: La   pdb-name: La   Scat. Types:  58  57 Mass=138.905453983 B-factor:0.000   
                 Charge=0.000000000  (-na-)  Polarization=31.100000000 [A^3] (considered a chargeless atom and no polarization)  Interactions: yes
                 Anisotropic factor:    0.000 [-] (Absolute), Radius:    1.940 [A], Framework-atom: yes (charge definition not found)
Pseudo Atom[  23] Name P1       Oxidation:          Element: P    pdb-name: P    Scat. Types:  16  15 Mass=30.973761630 B-factor:0.000   
                 Charge=0.000000000  (-na-)  Polarization=3.630000000  [A^3] (considered a chargeless atom and no polarization)  Interactions: yes
                 Anisotropic factor:    0.000 [-] (Absolute), Radius:    1.090 [A], Framework-atom: yes (charge definition not found)
Pseudo Atom[  24] Name P2       Oxidation:          Element: P    pdb-name: P    Scat. Types:  16  15 Mass=30.973761630 B-factor:0.000   
                 Charge=0.000000000  (-na-)  Polarization=3.630000000  [A^3] (considered a chargeless atom and no polarization)  Interactions: yes
                 Anisotropic factor:    0.000 [-] (Absolute), Radius:    1.090 [A], Framework-atom: yes (charge definition not found)
Pseudo Atom[  25] Name P3       Oxidation:          Element: P    pdb-name: P    Scat. Types:  16  15 Mass=30.973761630 B-factor:0.000   
                 Charge=0.000000000  (-na-)  Polarization=3.630000000  [A^3] (considered a chargeless atom and no polarization)  Interactions: yes
                 Anisotropic factor:    0.000 [-] (Absolute), Radius:    1.090 [A], Framework-atom: yes (charge definition not found)
Pseudo Atom[  26] Name P4       Oxidation:          Element: P    pdb-name: P    Scat. Types:  16  15 Mass=30.973761630 B-factor:0.000   
                 Charge=0.000000000  (-na-)  Polarization=3.630000000  [A^3] (considered a chargeless atom and no polarization)  Interactions: yes
                 Anisotropic factor:    0.000 [-] (Absolute), Radius:    1.090 [A], Framework-atom: yes (charge definition not found)
Pseudo Atom[  27] Name P5       Oxidation:          Element: P    pdb-name: P    Scat. Types:  16  15 Mass=30.973761630 B-factor:0.000   
                 Charge=0.000000000  (-na-)  Polarization=3.630000000  [A^3] (considered a chargeless atom and no polarization)  Interactions: yes
                 Anisotropic factor:    0.000 [-] (Absolute), Radius:    1.090 [A], Framework-atom: yes (charge definition not found)
Pseudo Atom[  28] Name P6       Oxidation:          Element: P    pdb-name: P    Scat. Types:  16  15 Mass=30.973761630 B-factor:0.000   
                 Charge=0.000000000  (-na-)  Polarization=3.630000000  [A^3] (considered a chargeless atom and no polarization)  Interactions: yes
                 Anisotropic factor:    0.000 [-] (Absolute), Radius:    1.090 [A], Framework-atom: yes (charge definition not found)
Pseudo Atom[  29] Name P7       Oxidation:          Element: P    pdb-name: P    Scat. Types:  16  15 Mass=30.973761630 B-factor:0.000   
                 Charge=0.000000000  (-na-)  Polarization=3.630000000  [A^3] (considered a chargeless atom and no polarization)  Interactions: yes
                 Anisotropic factor:    0.000 [-] (Absolute), Radius:    1.090 [A], Framework-atom: yes (charge definition not found)
Pseudo Atom[  30] Name P8       Oxidation:          Element: P    pdb-name: P    Scat. Types:  16  15 Mass=30.973761630 B-factor:0.000   
                 Charge=0.000000000  (-na-)  Polarization=3.630000000  [A^3] (considered a chargeless atom and no polarization)  Interactions: yes
                 Anisotropic factor:    0.000 [-] (Absolute), Radius:    1.090 [A], Framework-atom: yes (charge definition not found)
Pseudo Atom[  31] Name C1       Oxidation:          Element: C    pdb-name: C    Scat. Types:   7   6 Mass=12.010735897 B-factor:0.000   
                 Charge=0.000000000  (-na-)  Polarization=1.760000000  [A^3] (considered a chargeless atom and no polarization)  Interactions: yes
                 Anisotropic factor:    0.000 [-] (Absolute), Radius:    0.750 [A], Framework-atom: yes (charge definition not found)
Pseudo Atom[  32] Name C2       Oxidation:          Element: C    pdb-name: C    Scat. Types:   7   6 Mass=12.010735897 B-factor:0.000   
                 Charge=0.000000000  (-na-)  Polarization=1.760000000  [A^3] (considered a chargeless atom and no polarization)  Interactions: yes
                 Anisotropic factor:    0.000 [-] (Absolute), Radius:    0.750 [A], Framework-atom: yes (charge definition not found)
Pseudo Atom[  33] Name C3       Oxidation:          Element: C    pdb-name: C    Scat. Types:   7   6 Mass=12.010735897 B-factor:0.000   
                 Charge=0.000000000  (-na-)  Polarization=1.760000000  [A^3] (considered a chargeless atom and no polarization)  Interactions: yes
                 Anisotropic factor:    0.000 [-] (Absolute), Radius:    0.750 [A], Framework-atom: yes (charge definition not found)
Pseudo Atom[  34] Name C4       Oxidation:          Element: C    pdb-name: C    Scat. Types:   7   6 Mass=12.010735897 B-factor:0.000   
                 Charge=0.000000000  (-na-)  Polarization=1.760000000  [A^3] (considered a chargeless atom and no polarization)  Interactions: yes
                 Anisotropic factor:    0.000 [-] (Absolute), Radius:    0.750 [A], Framework-atom: yes (charge definition not found)
Pseudo Atom[  35] Name C5       Oxidation:          Element: C    pdb-name: C    Scat. Types:   7   6 Mass=12.010735897 B-factor:0.000   
                 Charge=0.000000000  (-na-)  Polarization=1.760000000  [A^3] (considered a chargeless atom and no polarization)  Interactions: yes
                 Anisotropic factor:    0.000 [-] (Absolute), Radius:    0.750 [A], Framework-atom: yes (charge definition not found)
Pseudo Atom[  36] Name C6       Oxidation:          Element: C    pdb-name: C    Scat. Types:   7   6 Mass=12.010735897 B-factor:0.000   
                 Charge=0.000000000  (-na-)  Polarization=1.760000000  [A^3] (considered a chargeless atom and no polarization)  Interactions: yes
                 Anisotropic factor:    0.000 [-] (Absolute), Radius:    0.750 [A], Framework-atom: yes (charge definition not found)
Pseudo Atom[  37] Name C7       Oxidation:          Element: C    pdb-name: C    Scat. Types:   7   6 Mass=12.010735897 B-factor:0.000   
                 Charge=0.000000000  (-na-)  Polarization=1.760000000  [A^3] (considered a chargeless atom and no polarization)  Interactions: yes
                 Anisotropic factor:    0.000 [-] (Absolute), Radius:    0.750 [A], Framework-atom: yes (charge definition not found)
Pseudo Atom[  38] Name C8       Oxidation:          Element: C    pdb-name: C    Scat. Types:   7   6 Mass=12.010735897 B-factor:0.000   
                 Charge=0.000000000  (-na-)  Polarization=1.760000000  [A^3] (considered a chargeless atom and no polarization)  Interactions: yes
                 Anisotropic factor:    0.000 [-] (Absolute), Radius:    0.750 [A], Framework-atom: yes (charge definition not found)
Pseudo Atom[  39] Name C9       Oxidation:          Element: C    pdb-name: C    Scat. Types:   7   6 Mass=12.010735897 B-factor:0.000   
                 Charge=0.000000000  (-na-)  Polarization=1.760000000  [A^3] (considered a chargeless atom and no polarization)  Interactions: yes
                 Anisotropic factor:    0.000 [-] (Absolute), Radius:    0.750 [A], Framework-atom: yes (charge definition not found)
Pseudo Atom[  40] Name C10      Oxidation:          Element: C    pdb-name: C    Scat. Types:   7   6 Mass=12.010735897 B-factor:0.000   
                 Charge=0.000000000  (-na-)  Polarization=1.760000000  [A^3] (considered a chargeless atom and no polarization)  Interactions: yes
                 Anisotropic factor:    0.000 [-] (Absolute), Radius:    0.750 [A], Framework-atom: yes (charge definition not found)
Pseudo Atom[  41] Name C11      Oxidation:          Element: C    pdb-name: C    Scat. Types:   7   6 Mass=12.010735897 B-factor:0.000   
                 Charge=0.000000000  (-na-)  Polarization=1.760000000  [A^3] (considered a chargeless atom and no polarization)  Interactions: yes
                 Anisotropic factor:    0.000 [-] (Absolute), Radius:    0.750 [A], Framework-atom: yes (charge definition not found)
Pseudo Atom[  42] Name C12      Oxidation:          Element: C    pdb-name: C    Scat. Types:   7   6 Mass=12.010735897 B-factor:0.000   
                 Charge=0.000000000  (-na-)  Polarization=1.760000000  [A^3] (considered a chargeless atom and no polarization)  Interactions: yes
                 Anisotropic factor:    0.000 [-] (Absolute), Radius:    0.750 [A], Framework-atom: yes (charge definition not found)
Pseudo Atom[  43] Name C13      Oxidation:          Element: C    pdb-name: C    Scat. Types:   7   6 Mass=12.010735897 B-factor:0.000   
                 Charge=0.000000000  (-na-)  Polarization=1.760000000  [A^3] (considered a chargeless atom and no polarization)  Interactions: yes
                 Anisotropic factor:    0.000 [-] (Absolute), Radius:    0.750 [A], Framework-atom: yes (charge definition not found)
Pseudo Atom[  44] Name C14      Oxidation:          Element: C    pdb-name: C    Scat. Types:   7   6 Mass=12.010735897 B-factor:0.000   
                 Charge=0.000000000  (-na-)  Polarization=1.760000000  [A^3] (considered a chargeless atom and no polarization)  Interactions: yes
                 Anisotropic factor:    0.000 [-] (Absolute), Radius:    0.750 [A], Framework-atom: yes (charge definition not found)
Pseudo Atom[  45] Name C15      Oxidation:          Element: C    pdb-name: C    Scat. Types:   7   6 Mass=12.010735897 B-factor:0.000   
                 Charge=0.000000000  (-na-)  Polarization=1.760000000  [A^3] (considered a chargeless atom and no polarization)  Interactions: yes
                 Anisotropic factor:    0.000 [-] (Absolute), Radius:    0.750 [A], Framework-atom: yes (charge definition not found)
Pseudo Atom[  46] Name C16      Oxidation:          Element: C    pdb-name: C    Scat. Types:   7   6 Mass=12.010735897 B-factor:0.000   
                 Charge=0.000000000  (-na-)  Polarization=1.760000000  [A^3] (considered a chargeless atom and no polarization)  Interactions: yes
                 Anisotropic factor:    0.000 [-] (Absolute), Radius:    0.750 [A], Framework-atom: yes (charge definition not found)
Pseudo Atom[  47] Name O1       Oxidation:          Element: O    pdb-name: O    Scat. Types:   9   8 Mass=15.999404927 B-factor:0.000   
                 Charge=0.000000000  (-na-)  Polarization=0.802000000  [A^3] (considered a chargeless atom and no polarization)  Interactions: yes
                 Anisotropic factor:    0.000 [-] (Absolute), Radius:    0.640 [A], Framework-atom: yes (charge definition not found)
Pseudo Atom[  48] Name O2       Oxidation:          Element: O    pdb-name: O    Scat. Types:   9   8 Mass=15.999404927 B-factor:0.000   
                 Charge=0.000000000  (-na-)  Polarization=0.802000000  [A^3] (considered a chargeless atom and no polarization)  Interactions: yes
                 Anisotropic factor:    0.000 [-] (Absolute), Radius:    0.640 [A], Framework-atom: yes (charge definition not found)
Pseudo Atom[  49] Name O3       Oxidation:          Element: O    pdb-name: O    Scat. Types:   9   8 Mass=15.999404927 B-factor:0.000   
                 Charge=0.000000000  (-na-)  Polarization=0.802000000  [A^3] (considered a chargeless atom and no polarization)  Interactions: yes
                 Anisotropic factor:    0.000 [-] (Absolute), Radius:    0.640 [A], Framework-atom: yes (charge definition not found)
Pseudo Atom[  50] Name O4       Oxidation:          Element: O    pdb-name: O    Scat. Types:   9   8 Mass=15.999404927 B-factor:0.000   
                 Charge=0.000000000  (-na-)  Polarization=0.802000000  [A^3] (considered a chargeless atom and no polarization)  Interactions: yes
                 Anisotropic factor:    0.000 [-] (Absolute), Radius:    0.640 [A], Framework-atom: yes (charge definition not found)
Pseudo Atom[  51] Name O5       Oxidation:          Element: O    pdb-name: O    Scat. Types:   9   8 Mass=15.999404927 B-factor:0.000   
                 Charge=0.000000000  (-na-)  Polarization=0.802000000  [A^3] (considered a chargeless atom and no polarization)  Interactions: yes
                 Anisotropic factor:    0.000 [-] (Absolute), Radius:    0.640 [A], Framework-atom: yes (charge definition not found)
Pseudo Atom[  52] Name O6       Oxidation:          Element: O    pdb-name: O    Scat. Types:   9   8 Mass=15.999404927 B-factor:0.000   
                 Charge=0.000000000  (-na-)  Polarization=0.802000000  [A^3] (considered a chargeless atom and no polarization)  Interactions: yes
                 Anisotropic factor:    0.000 [-] (Absolute), Radius:    0.640 [A], Framework-atom: yes (charge definition not found)
Pseudo Atom[  53] Name O7       Oxidation:          Element: O    pdb-name: O    Scat. Types:   9   8 Mass=15.999404927 B-factor:0.000   
                 Charge=0.000000000  (-na-)  Polarization=0.802000000  [A^3] (considered a chargeless atom and no polarization)  Interactions: yes
                 Anisotropic factor:    0.000 [-] (Absolute), Radius:    0.640 [A], Framework-atom: yes (charge definition not found)
Pseudo Atom[  54] Name O8       Oxidation:          Element: O    pdb-name: O    Scat. Types:   9   8 Mass=15.999404927 B-factor:0.000   
                 Charge=0.000000000  (-na-)  Polarization=0.802000000  [A^3] (considered a chargeless atom and no polarization)  Interactions: yes
                 Anisotropic factor:    0.000 [-] (Absolute), Radius:    0.640 [A], Framework-atom: yes (charge definition not found)
Pseudo Atom[  55] Name O9       Oxidation:          Element: O    pdb-name: O    Scat. Types:   9   8 Mass=15.999404927 B-factor:0.000   
                 Charge=0.000000000  (-na-)  Polarization=0.802000000  [A^3] (considered a chargeless atom and no polarization)  Interactions: yes
                 Anisotropic factor:    0.000 [-] (Absolute), Radius:    0.640 [A], Framework-atom: yes (charge definition not found)
Pseudo Atom[  56] Name O10      Oxidation:          Element: O    pdb-name: O    Scat. Types:   9   8 Mass=15.999404927 B-factor:0.000   
                 Charge=0.000000000  (-na-)  Polarization=0.802000000  [A^3] (considered a chargeless atom and no polarization)  Interactions: yes
                 Anisotropic factor:    0.000 [-] (Absolute), Radius:    0.640 [A], Framework-atom: yes (charge definition not found)
Pseudo Atom[  57] Name O11      Oxidation:          Element: O    pdb-name: O    Scat. Types:   9   8 Mass=15.999404927 B-factor:0.000   
                 Charge=0.000000000  (-na-)  Polarization=0.802000000  [A^3] (considered a chargeless atom and no polarization)  Interactions: yes
                 Anisotropic factor:    0.000 [-] (Absolute), Radius:    0.640 [A], Framework-atom: yes (charge definition not found)
Pseudo Atom[  58] Name O12      Oxidation:          Element: O    pdb-name: O    Scat. Types:   9   8 Mass=15.999404927 B-factor:0.000   
                 Charge=0.000000000  (-na-)  Polarization=0.802000000  [A^3] (considered a chargeless atom and no polarization)  Interactions: yes
                 Anisotropic factor:    0.000 [-] (Absolute), Radius:    0.640 [A], Framework-atom: yes (charge definition not found)
Pseudo Atom[  59] Name O13      Oxidation:          Element: O    pdb-name: O    Scat. Types:   9   8 Mass=15.999404927 B-factor:0.000   
                 Charge=0.000000000  (-na-)  Polarization=0.802000000  [A^3] (considered a chargeless atom and no polarization)  Interactions: yes
                 Anisotropic factor:    0.000 [-] (Absolute), Radius:    0.640 [A], Framework-atom: yes (charge definition not found)
Pseudo Atom[  60] Name O14      Oxidation:          Element: O    pdb-name: O    Scat. Types:   9   8 Mass=15.999404927 B-factor:0.000   
                 Charge=0.000000000  (-na-)  Polarization=0.802000000  [A^3] (considered a chargeless atom and no polarization)  Interactions: yes
                 Anisotropic factor:    0.000 [-] (Absolute), Radius:    0.640 [A], Framework-atom: yes (charge definition not found)
Pseudo Atom[  61] Name O15      Oxidation:          Element: O    pdb-name: O    Scat. Types:   9   8 Mass=15.999404927 B-factor:0.000   
                 Charge=0.000000000  (-na-)  Polarization=0.802000000  [A^3] (considered a chargeless atom and no polarization)  Interactions: yes
                 Anisotropic factor:    0.000 [-] (Absolute), Radius:    0.640 [A], Framework-atom: yes (charge definition not found)
Pseudo Atom[  62] Name O16      Oxidation:          Element: O    pdb-name: O    Scat. Types:   9   8 Mass=15.999404927 B-factor:0.000   
                 Charge=0.000000000  (-na-)  Polarization=0.802000000  [A^3] (considered a chargeless atom and no polarization)  Interactions: yes
                 Anisotropic factor:    0.000 [-] (Absolute), Radius:    0.640 [A], Framework-atom: yes (charge definition not found)
Pseudo Atom[  63] Name O17      Oxidation:          Element: O    pdb-name: O    Scat. Types:   9   8 Mass=15.999404927 B-factor:0.000   
                 Charge=0.000000000  (-na-)  Polarization=0.802000000  [A^3] (considered a chargeless atom and no polarization)  Interactions: yes
                 Anisotropic factor:    0.000 [-] (Absolute), Radius:    0.640 [A], Framework-atom: yes (charge definition not found)
Pseudo Atom[  64] Name O18      Oxidation:          Element: O    pdb-name: O    Scat. Types:   9   8 Mass=15.999404927 B-factor:0.000   
                 Charge=0.000000000  (-na-)  Polarization=0.802000000  [A^3] (considered a chargeless atom and no polarization)  Interactions: yes
                 Anisotropic factor:    0.000 [-] (Absolute), Radius:    0.640 [A], Framework-atom: yes (charge definition not found)
Pseudo Atom[  65] Name O19      Oxidation:          Element: O    pdb-name: O    Scat. Types:   9   8 Mass=15.999404927 B-factor:0.000   
                 Charge=0.000000000  (-na-)  Polarization=0.802000000  [A^3] (considered a chargeless atom and no polarization)  Interactions: yes
                 Anisotropic factor:    0.000 [-] (Absolute), Radius:    0.640 [A], Framework-atom: yes (charge definition not found)
Pseudo Atom[  66] Name O20      Oxidation:          Element: O    pdb-name: O    Scat. Types:   9   8 Mass=15.999404927 B-factor:0.000   
                 Charge=0.000000000  (-na-)  Polarization=0.802000000  [A^3] (considered a chargeless atom and no polarization)  Interactions: yes
                 Anisotropic factor:    0.000 [-] (Absolute), Radius:    0.640 [A], Framework-atom: yes (charge definition not found)
Pseudo Atom[  67] Name O21      Oxidation:          Element: O    pdb-name: O    Scat. Types:   9   8 Mass=15.999404927 B-factor:0.000   
                 Charge=0.000000000  (-na-)  Polarization=0.802000000  [A^3] (considered a chargeless atom and no polarization)  Interactions: yes
                 Anisotropic factor:    0.000 [-] (Absolute), Radius:    0.640 [A], Framework-atom: yes (charge definition not found)
Pseudo Atom[  68] Name O22      Oxidation:          Element: O    pdb-name: O    Scat. Types:   9   8 Mass=15.999404927 B-factor:0.000   
                 Charge=0.000000000  (-na-)  Polarization=0.802000000  [A^3] (considered a chargeless atom and no polarization)  Interactions: yes
                 Anisotropic factor:    0.000 [-] (Absolute), Radius:    0.640 [A], Framework-atom: yes (charge definition not found)
Pseudo Atom[  69] Name O23      Oxidation:          Element: O    pdb-name: O    Scat. Types:   9   8 Mass=15.999404927 B-factor:0.000   
                 Charge=0.000000000  (-na-)  Polarization=0.802000000  [A^3] (considered a chargeless atom and no polarization)  Interactions: yes
                 Anisotropic factor:    0.000 [-] (Absolute), Radius:    0.640 [A], Framework-atom: yes (charge definition not found)
Pseudo Atom[  70] Name O24      Oxidation:          Element: O    pdb-name: O    Scat. Types:   9   8 Mass=15.999404927 B-factor:0.000   
                 Charge=0.000000000  (-na-)  Polarization=0.802000000  [A^3] (considered a chargeless atom and no polarization)  Interactions: yes
                 Anisotropic factor:    0.000 [-] (Absolute), Radius:    0.640 [A], Framework-atom: yes (charge definition not found)
Pseudo Atom[  71] Name O25      Oxidation:          Element: O    pdb-name: O    Scat. Types:   9   8 Mass=15.999404927 B-factor:0.000   
                 Charge=0.000000000  (-na-)  Polarization=0.802000000  [A^3] (considered a chargeless atom and no polarization)  Interactions: yes
                 Anisotropic factor:    0.000 [-] (Absolute), Radius:    0.640 [A], Framework-atom: yes (charge definition not found)
Pseudo Atom[  72] Name O26      Oxidation:          Element: O    pdb-name: O    Scat. Types:   9   8 Mass=15.999404927 B-factor:0.000   
                 Charge=0.000000000  (-na-)  Polarization=0.802000000  [A^3] (considered a chargeless atom and no polarization)  Interactions: yes
                 Anisotropic factor:    0.000 [-] (Absolute), Radius:    0.640 [A], Framework-atom: yes (charge definition not found)
Pseudo Atom[  73] Name O27      Oxidation:          Element: O    pdb-name: O    Scat. Types:   9   8 Mass=15.999404927 B-factor:0.000   
                 Charge=0.000000000  (-na-)  Polarization=0.802000000  [A^3] (considered a chargeless atom and no polarization)  Interactions: yes
                 Anisotropic factor:    0.000 [-] (Absolute), Radius:    0.640 [A], Framework-atom: yes (charge definition not found)
Pseudo Atom[  74] Name O28      Oxidation:          Element: O    pdb-name: O    Scat. Types:   9   8 Mass=15.999404927 B-factor:0.000   
                 Charge=0.000000000  (-na-)  Polarization=0.802000000  [A^3] (considered a chargeless atom and no polarization)  Interactions: yes
                 Anisotropic factor:    0.000 [-] (Absolute), Radius:    0.640 [A], Framework-atom: yes (charge definition not found)
Pseudo Atom[  75] Name O29      Oxidation:          Element: O    pdb-name: O    Scat. Types:   9   8 Mass=15.999404927 B-factor:0.000   
                 Charge=0.000000000  (-na-)  Polarization=0.802000000  [A^3] (considered a chargeless atom and no polarization)  Interactions: yes
                 Anisotropic factor:    0.000 [-] (Absolute), Radius:    0.640 [A], Framework-atom: yes (charge definition not found)
Pseudo Atom[  76] Name O30      Oxidation:          Element: O    pdb-name: O    Scat. Types:   9   8 Mass=15.999404927 B-factor:0.000   
                 Charge=0.000000000  (-na-)  Polarization=0.802000000  [A^3] (considered a chargeless atom and no polarization)  Interactions: yes
                 Anisotropic factor:    0.000 [-] (Absolute), Radius:    0.640 [A], Framework-atom: yes (charge definition not found)
Pseudo Atom[  77] Name O31      Oxidation:          Element: O    pdb-name: O    Scat. Types:   9   8 Mass=15.999404927 B-factor:0.000   
                 Charge=0.000000000  (-na-)  Polarization=0.802000000  [A^3] (considered a chargeless atom and no polarization)  Interactions: yes
                 Anisotropic factor:    0.000 [-] (Absolute), Radius:    0.640 [A], Framework-atom: yes (charge definition not found)
Pseudo Atom[  78] Name O32      Oxidation:          Element: O    pdb-name: O    Scat. Types:   9   8 Mass=15.999404927 B-factor:0.000   
                 Charge=0.000000000  (-na-)  Polarization=0.802000000  [A^3] (considered a chargeless atom and no polarization)  Interactions: yes
                 Anisotropic factor:    0.000 [-] (Absolute), Radius:    0.640 [A], Framework-atom: yes (charge definition not found)
Pseudo Atom[  79] Name O33      Oxidation:          Element: O    pdb-name: O    Scat. Types:   9   8 Mass=15.999404927 B-factor:0.000   
                 Charge=0.000000000  (-na-)  Polarization=0.802000000  [A^3] (considered a chargeless atom and no polarization)  Interactions: yes
                 Anisotropic factor:    0.000 [-] (Absolute), Radius:    0.640 [A], Framework-atom: yes (charge definition not found)
Pseudo Atom[  80] Name O34      Oxidation:          Element: O    pdb-name: O    Scat. Types:   9   8 Mass=15.999404927 B-factor:0.000   
                 Charge=0.000000000  (-na-)  Polarization=0.802000000  [A^3] (considered a chargeless atom and no polarization)  Interactions: yes
                 Anisotropic factor:    0.000 [-] (Absolute), Radius:    0.640 [A], Framework-atom: yes (charge definition not found)
Pseudo Atom[  81] Name O35      Oxidation:          Element: O    pdb-name: O    Scat. Types:   9   8 Mass=15.999404927 B-factor:0.000   
                 Charge=0.000000000  (-na-)  Polarization=0.802000000  [A^3] (considered a chargeless atom and no polarization)  Interactions: yes
                 Anisotropic factor:    0.000 [-] (Absolute), Radius:    0.640 [A], Framework-atom: yes (charge definition not found)
Pseudo Atom[  82] Name O36      Oxidation:          Element: O    pdb-name: O    Scat. Types:   9   8 Mass=15.999404927 B-factor:0.000   
                 Charge=0.000000000  (-na-)  Polarization=0.802000000  [A^3] (considered a chargeless atom and no polarization)  Interactions: yes
                 Anisotropic factor:    0.000 [-] (Absolute), Radius:    0.640 [A], Framework-atom: yes (charge definition not found)
Pseudo Atom[  83] Name O37      Oxidation:          Element: O    pdb-name: O    Scat. Types:   9   8 Mass=15.999404927 B-factor:0.000   
                 Charge=0.000000000  (-na-)  Polarization=0.802000000  [A^3] (considered a chargeless atom and no polarization)  Interactions: yes
                 Anisotropic factor:    0.000 [-] (Absolute), Radius:    0.640 [A], Framework-atom: yes (charge definition not found)
Pseudo Atom[  84] Name O38      Oxidation:          Element: O    pdb-name: O    Scat. Types:   9   8 Mass=15.999404927 B-factor:0.000   
                 Charge=0.000000000  (-na-)  Polarization=0.802000000  [A^3] (considered a chargeless atom and no polarization)  Interactions: yes
                 Anisotropic factor:    0.000 [-] (Absolute), Radius:    0.640 [A], Framework-atom: yes (charge definition not found)
Pseudo Atom[  85] Name O39      Oxidation:          Element: O    pdb-name: O    Scat. Types:   9   8 Mass=15.999404927 B-factor:0.000   
                 Charge=0.000000000  (-na-)  Polarization=0.802000000  [A^3] (considered a chargeless atom and no polarization)  Interactions: yes
                 Anisotropic factor:    0.000 [-] (Absolute), Radius:    0.640 [A], Framework-atom: yes (charge definition not found)
Pseudo Atom[  86] Name O40      Oxidation:          Element: O    pdb-name: O    Scat. Types:   9   8 Mass=15.999404927 B-factor:0.000   
                 Charge=0.000000000  (-na-)  Polarization=0.802000000  [A^3] (considered a chargeless atom and no polarization)  Interactions: yes
                 Anisotropic factor:    0.000 [-] (Absolute), Radius:    0.640 [A], Framework-atom: yes (charge definition not found)
Pseudo Atom[  87] Name O41      Oxidation:          Element: O    pdb-name: O    Scat. Types:   9   8 Mass=15.999404927 B-factor:0.000   
                 Charge=0.000000000  (-na-)  Polarization=0.802000000  [A^3] (considered a chargeless atom and no polarization)  Interactions: yes
                 Anisotropic factor:    0.000 [-] (Absolute), Radius:    0.640 [A], Framework-atom: yes (charge definition not found)
Pseudo Atom[  88] Name O42      Oxidation:          Element: O    pdb-name: O    Scat. Types:   9   8 Mass=15.999404927 B-factor:0.000   
                 Charge=0.000000000  (-na-)  Polarization=0.802000000  [A^3] (considered a chargeless atom and no polarization)  Interactions: yes
                 Anisotropic factor:    0.000 [-] (Absolute), Radius:    0.640 [A], Framework-atom: yes (charge definition not found)
Pseudo Atom[  89] Name O43      Oxidation:          Element: O    pdb-name: O    Scat. Types:   9   8 Mass=15.999404927 B-factor:0.000   
                 Charge=0.000000000  (-na-)  Polarization=0.802000000  [A^3] (considered a chargeless atom and no polarization)  Interactions: yes
                 Anisotropic factor:    0.000 [-] (Absolute), Radius:    0.640 [A], Framework-atom: yes (charge definition not found)
Pseudo Atom[  90] Name O44      Oxidation:          Element: O    pdb-name: O    Scat. Types:   9   8 Mass=15.999404927 B-factor:0.000   
                 Charge=0.000000000  (-na-)  Polarization=0.802000000  [A^3] (considered a chargeless atom and no polarization)  Interactions: yes
                 Anisotropic factor:    0.000 [-] (Absolute), Radius:    0.640 [A], Framework-atom: yes (charge definition not found)
Pseudo Atom[  91] Name O45      Oxidation:          Element: O    pdb-name: O    Scat. Types:   9   8 Mass=15.999404927 B-factor:0.000   
                 Charge=0.000000000  (-na-)  Polarization=0.802000000  [A^3] (considered a chargeless atom and no polarization)  Interactions: yes
                 Anisotropic factor:    0.000 [-] (Absolute), Radius:    0.640 [A], Framework-atom: yes (charge definition not found)
Pseudo Atom[  92] Name O46      Oxidation:          Element: O    pdb-name: O    Scat. Types:   9   8 Mass=15.999404927 B-factor:0.000   
                 Charge=0.000000000  (-na-)  Polarization=0.802000000  [A^3] (considered a chargeless atom and no polarization)  Interactions: yes
                 Anisotropic factor:    0.000 [-] (Absolute), Radius:    0.640 [A], Framework-atom: yes (charge definition not found)
Pseudo Atom[  93] Name O47      Oxidation:          Element: O    pdb-name: O    Scat. Types:   9   8 Mass=15.999404927 B-factor:0.000   
                 Charge=0.000000000  (-na-)  Polarization=0.802000000  [A^3] (considered a chargeless atom and no polarization)  Interactions: yes
                 Anisotropic factor:    0.000 [-] (Absolute), Radius:    0.640 [A], Framework-atom: yes (charge definition not found)
Pseudo Atom[  94] Name O48      Oxidation:          Element: O    pdb-name: O    Scat. Types:   9   8 Mass=15.999404927 B-factor:0.000   
                 Charge=0.000000000  (-na-)  Polarization=0.802000000  [A^3] (considered a chargeless atom and no polarization)  Interactions: yes
                 Anisotropic factor:    0.000 [-] (Absolute), Radius:    0.640 [A], Framework-atom: yes (charge definition not found)
Pseudo Atom[  95] Name O49      Oxidation:          Element: O    pdb-name: O    Scat. Types:   9   8 Mass=15.999404927 B-factor:0.000   
                 Charge=0.000000000  (-na-)  Polarization=0.802000000  [A^3] (considered a chargeless atom and no polarization)  Interactions: yes
                 Anisotropic factor:    0.000 [-] (Absolute), Radius:    0.640 [A], Framework-atom: yes (charge definition not found)
Pseudo Atom[  96] Name O50      Oxidation:          Element: O    pdb-name: O    Scat. Types:   9   8 Mass=15.999404927 B-factor:0.000   
                 Charge=0.000000000  (-na-)  Polarization=0.802000000  [A^3] (considered a chargeless atom and no polarization)  Interactions: yes
                 Anisotropic factor:    0.000 [-] (Absolute), Radius:    0.640 [A], Framework-atom: yes (charge definition not found)
Pseudo Atom[  97] Name O51      Oxidation:          Element: O    pdb-name: O    Scat. Types:   9   8 Mass=15.999404927 B-factor:0.000   
                 Charge=0.000000000  (-na-)  Polarization=0.802000000  [A^3] (considered a chargeless atom and no polarization)  Interactions: yes
                 Anisotropic factor:    0.000 [-] (Absolute), Radius:    0.640 [A], Framework-atom: yes (charge definition not found)
Pseudo Atom[  98] Name O52      Oxidation:          Element: O    pdb-name: O    Scat. Types:   9   8 Mass=15.999404927 B-factor:0.000   
                 Charge=0.000000000  (-na-)  Polarization=0.802000000  [A^3] (considered a chargeless atom and no polarization)  Interactions: yes
                 Anisotropic factor:    0.000 [-] (Absolute), Radius:    0.640 [A], Framework-atom: yes (charge definition not found)
Pseudo Atom[  99] Name O53      Oxidation:          Element: O    pdb-name: O    Scat. Types:   9   8 Mass=15.999404927 B-factor:0.000   
                 Charge=0.000000000  (-na-)  Polarization=0.802000000  [A^3] (considered a chargeless atom and no polarization)  Interactions: yes
                 Anisotropic factor:    0.000 [-] (Absolute), Radius:    0.640 [A], Framework-atom: yes (charge definition not found)
Pseudo Atom[ 100] Name O54      Oxidation:          Element: O    pdb-name: O    Scat. Types:   9   8 Mass=15.999404927 B-factor:0.000   
                 Charge=0.000000000  (-na-)  Polarization=0.802000000  [A^3] (considered a chargeless atom and no polarization)  Interactions: yes
                 Anisotropic factor:    0.000 [-] (Absolute), Radius:    0.640 [A], Framework-atom: yes (charge definition not found)
Pseudo Atom[ 101] Name O55      Oxidation:          Element: O    pdb-name: O    Scat. Types:   9   8 Mass=15.999404927 B-factor:0.000   
                 Charge=0.000000000  (-na-)  Polarization=0.802000000  [A^3] (considered a chargeless atom and no polarization)  Interactions: yes
                 Anisotropic factor:    0.000 [-] (Absolute), Radius:    0.640 [A], Framework-atom: yes (charge definition not found)
Pseudo Atom[ 102] Name O56      Oxidation:          Element: O    pdb-name: O    Scat. Types:   9   8 Mass=15.999404927 B-factor:0.000   
                 Charge=0.000000000  (-na-)  Polarization=0.802000000  [A^3] (considered a chargeless atom and no polarization)  Interactions: yes
                 Anisotropic factor:    0.000 [-] (Absolute), Radius:    0.640 [A], Framework-atom: yes (charge definition not found)
Pseudo Atom[ 103] Name O57      Oxidation:          Element: O    pdb-name: O    Scat. Types:   9   8 Mass=15.999404927 B-factor:0.000   
                 Charge=0.000000000  (-na-)  Polarization=0.802000000  [A^3] (considered a chargeless atom and no polarization)  Interactions: yes
                 Anisotropic factor:    0.000 [-] (Absolute), Radius:    0.640 [A], Framework-atom: yes (charge definition not found)
Pseudo Atom[ 104] Name O58      Oxidation:          Element: O    pdb-name: O    Scat. Types:   9   8 Mass=15.999404927 B-factor:0.000   
                 Charge=0.000000000  (-na-)  Polarization=0.802000000  [A^3] (considered a chargeless atom and no polarization)  Interactions: yes
                 Anisotropic factor:    0.000 [-] (Absolute), Radius:    0.640 [A], Framework-atom: yes (charge definition not found)
Pseudo Atom[ 105] Name O59      Oxidation:          Element: O    pdb-name: O    Scat. Types:   9   8 Mass=15.999404927 B-factor:0.000   
                 Charge=0.000000000  (-na-)  Polarization=0.802000000  [A^3] (considered a chargeless atom and no polarization)  Interactions: yes
                 Anisotropic factor:    0.000 [-] (Absolute), Radius:    0.640 [A], Framework-atom: yes (charge definition not found)
Pseudo Atom[ 106] Name O60      Oxidation:          Element: O    pdb-name: O    Scat. Types:   9   8 Mass=15.999404927 B-factor:0.000   
                 Charge=0.000000000  (-na-)  Polarization=0.802000000  [A^3] (considered a chargeless atom and no polarization)  Interactions: yes
                 Anisotropic factor:    0.000 [-] (Absolute), Radius:    0.640 [A], Framework-atom: yes (charge definition not found)
Pseudo Atom[ 107] Name O61      Oxidation:          Element: O    pdb-name: O    Scat. Types:   9   8 Mass=15.999404927 B-factor:0.000   
                 Charge=0.000000000  (-na-)  Polarization=0.802000000  [A^3] (considered a chargeless atom and no polarization)  Interactions: yes
                 Anisotropic factor:    0.000 [-] (Absolute), Radius:    0.640 [A], Framework-atom: yes (charge definition not found)
Pseudo Atom[ 108] Name O62      Oxidation:          Element: O    pdb-name: O    Scat. Types:   9   8 Mass=15.999404927 B-factor:0.000   
                 Charge=0.000000000  (-na-)  Polarization=0.802000000  [A^3] (considered a chargeless atom and no polarization)  Interactions: yes
                 Anisotropic factor:    0.000 [-] (Absolute), Radius:    0.640 [A], Framework-atom: yes (charge definition not found)
Pseudo Atom[ 109] Name O63      Oxidation:          Element: O    pdb-name: O    Scat. Types:   9   8 Mass=15.999404927 B-factor:0.000   
                 Charge=0.000000000  (-na-)  Polarization=0.802000000  [A^3] (considered a chargeless atom and no polarization)  Interactions: yes
                 Anisotropic factor:    0.000 [-] (Absolute), Radius:    0.640 [A], Framework-atom: yes (charge definition not found)
Pseudo Atom[ 110] Name O64      Oxidation:          Element: O    pdb-name: O    Scat. Types:   9   8 Mass=15.999404927 B-factor:0.000   
                 Charge=0.000000000  (-na-)  Polarization=0.802000000  [A^3] (considered a chargeless atom and no polarization)  Interactions: yes
                 Anisotropic factor:    0.000 [-] (Absolute), Radius:    0.640 [A], Framework-atom: yes (charge definition not found)


Forcefield: Henry_Ref_ForceField
===========================================================================
Minimal distance: 1
CutOff VDW : 12.000000 (144.000000)
CutOff VDW switching on: 10.800000 (116.640000)
CutOff charge-charge : 12.000000 (144.000000)
CutOff charge-charge switching on: 7.800000 (60.840000)
CutOff charge-bonddipole : 12.000000 (144.000000)
CutOff charge-bondipole switching on: 8.400000 (70.560000)
CutOff bonddipole-bonddipole : 12.000000 (144.000000)
CutOff bonddipole-bondipole switching on: 9.000000 (81.000000)
Polarization is neglected
All potentials are shifted to zero at the Cutoff

General mixing rule: Lorentz-Berthelot mixing rules are used FIRST for cross terms
0 cross terms are overwritten using the individual mixing rules from the file 'force_field_mixing_rules.def'
and then 0 terms are overwritten using the specific interactions from the file 'force_field.def'

The force field and all the interactions:
     He -      He [LENNARD_JONES] p_0/k_B:  28.18320 [K], p_1: 2.10430 [A], shift/k_B:  -0.00327790 [K], tailcorrection: no
     He -   C_co2 [LENNARD_JONES] p_0/k_B:  29.04493 [K], p_1: 2.42465 [A], shift/k_B:  -0.00790510 [K], tailcorrection: no
     He -   O_co2 [LENNARD_JONES] p_0/k_B:  49.13739 [K], p_1: 2.56065 [A], shift/k_B:  -0.01855431 [K], tailcorrection: no
     He -    O_o2 [LENNARD_JONES] p_0/k_B:  29.17239 [K], p_1: 2.61120 [A], shift/k_B:  -0.01238623 [K], tailcorrection: no
     He -   O_com [LENNARD_JONES] p_0/k_B:  29.17239 [K], p_1: 2.61120 [A], shift/k_B:  -0.01238623 [K], tailcorrection: no
     He -    N_n2 [LENNARD_JONES] p_0/k_B:  31.28388 [K], p_1: 2.68250 [A], shift/k_B:  -0.01561268 [K], tailcorrection: no
     He -   N_com [LENNARD_JONES] p_0/k_B:  31.28388 [K], p_1: 2.68250 [A], shift/k_B:  -0.01561268 [K], tailcorrection: no
     He -      Ar [LENNARD_JONES] p_0/k_B:  51.22502 [K], p_1: 2.77515 [A], shift/k_B:  -0.03134058 [K], tailcorrection: no
     He -     CH4 [LENNARD_JONES] p_0/k_B:  38.59144 [K], p_1: 2.76760 [A], shift/k_B:  -0.02322833 [K], tailcorrection: no
     He -     CH3 [LENNARD_JONES] p_0/k_B:  38.59144 [K], p_1: 2.76760 [A], shift/k_B:  -0.02322833 [K], tailcorrection: no
     He -     CH2 [LENNARD_JONES] p_0/k_B:  38.59144 [K], p_1: 2.76760 [A], shift/k_B:  -0.02322833 [K], tailcorrection: no
     He -      CH [LENNARD_JONES] p_0/k_B:  38.59144 [K], p_1: 2.76760 [A], shift/k_B:  -0.02322833 [K], tailcorrection: no
     He -       C [LENNARD_JONES] p_0/k_B:  38.59144 [K], p_1: 2.76760 [A], shift/k_B:  -0.02322833 [K], tailcorrection: no
     He -      Hw [LENNARD_JONES] p_0/k_B:  24.98171 [K], p_1: 2.33770 [A], shift/k_B:  -0.00546140 [K], tailcorrection: no
     He -      Ow [LENNARD_JONES] p_0/k_B:  29.17239 [K], p_1: 2.61120 [A], shift/k_B:  -0.01238623 [K], tailcorrection: no
     He -     La1 [LENNARD_JONES] p_0/k_B:  15.52817 [K], p_1: 2.62100 [A], shift/k_B:  -0.00674292 [K], tailcorrection: no
     He -     La2 [LENNARD_JONES] p_0/k_B:  15.52817 [K], p_1: 2.62100 [A], shift/k_B:  -0.00674292 [K], tailcorrection: no
     He -     La3 [LENNARD_JONES] p_0/k_B:  15.52817 [K], p_1: 2.62100 [A], shift/k_B:  -0.00674292 [K], tailcorrection: no
     He -     La4 [LENNARD_JONES] p_0/k_B:  15.52817 [K], p_1: 2.62100 [A], shift/k_B:  -0.00674292 [K], tailcorrection: no
     He -     La5 [LENNARD_JONES] p_0/k_B:  15.52817 [K], p_1: 2.62100 [A], shift/k_B:  -0.00674292 [K], tailcorrection: no
     He -     La6 [LENNARD_JONES] p_0/k_B:  15.52817 [K], p_1: 2.62100 [A], shift/k_B:  -0.00674292 [K], tailcorrection: no
     He -      P1 [LENNARD_JONES] p_0/k_B:  65.77276 [K], p_1: 2.89945 [A], shift/k_B:  -0.05233906 [K], tailcorrection: no
     He -      P2 [LENNARD_JONES] p_0/k_B:  65.77276 [K], p_1: 2.89945 [A], shift/k_B:  -0.05233906 [K], tailcorrection: no
     He -      P3 [LENNARD_JONES] p_0/k_B:  65.77276 [K], p_1: 2.89945 [A], shift/k_B:  -0.05233906 [K], tailcorrection: no
     He -      P4 [LENNARD_JONES] p_0/k_B:  65.77276 [K], p_1: 2.89945 [A], shift/k_B:  -0.05233906 [K], tailcorrection: no
     He -      P5 [LENNARD_JONES] p_0/k_B:  65.77276 [K], p_1: 2.89945 [A], shift/k_B:  -0.05233906 [K], tailcorrection: no
     He -      P6 [LENNARD_JONES] p_0/k_B:  65.77276 [K], p_1: 2.89945 [A], shift/k_B:  -0.05233906 [K], tailcorrection: no
     He -      P7 [LENNARD_JONES] p_0/k_B:  65.77276 [K], p_1: 2.89945 [A], shift/k_B:  -0.05233906 [K], tailcorrection: no
     He -      P8 [LENNARD_JONES] p_0/k_B:  65.77276 [K], p_1: 2.89945 [A], shift/k_B:  -0.05233906 [K], tailcorrection: no
     He -      C1 [LENNARD_JONES] p_0/k_B:  38.59144 [K], p_1: 2.76760 [A], shift/k_B:  -0.02322833 [K], tailcorrection: no
     He -      C2 [LENNARD_JONES] p_0/k_B:  38.59144 [K], p_1: 2.76760 [A], shift/k_B:  -0.02322833 [K], tailcorrection: no
     He -      C3 [LENNARD_JONES] p_0/k_B:  38.59144 [K], p_1: 2.76760 [A], shift/k_B:  -0.02322833 [K], tailcorrection: no
     He -      C4 [LENNARD_JONES] p_0/k_B:  38.59144 [K], p_1: 2.76760 [A], shift/k_B:  -0.02322833 [K], tailcorrection: no
     He -      C5 [LENNARD_JONES] p_0/k_B:  38.59144 [K], p_1: 2.76760 [A], shift/k_B:  -0.02322833 [K], tailcorrection: no
     He -      C6 [LENNARD_JONES] p_0/k_B:  38.59144 [K], p_1: 2.76760 [A], shift/k_B:  -0.02322833 [K], tailcorrection: no
     He -      C7 [LENNARD_JONES] p_0/k_B:  38.59144 [K], p_1: 2.76760 [A], shift/k_B:  -0.02322833 [K], tailcorrection: no
     He -      C8 [LENNARD_JONES] p_0/k_B:  38.59144 [K], p_1: 2.76760 [A], shift/k_B:  -0.02322833 [K], tailcorrection: no
     He -      C9 [LENNARD_JONES] p_0/k_B:  38.59144 [K], p_1: 2.76760 [A], shift/k_B:  -0.02322833 [K], tailcorrection: no
     He -     C10 [LENNARD_JONES] p_0/k_B:  38.59144 [K], p_1: 2.76760 [A], shift/k_B:  -0.02322833 [K], tailcorrection: no
     He -     C11 [LENNARD_JONES] p_0/k_B:  38.59144 [K], p_1: 2.76760 [A], shift/k_B:  -0.02322833 [K], tailcorrection: no
     He -     C12 [LENNARD_JONES] p_0/k_B:  38.59144 [K], p_1: 2.76760 [A], shift/k_B:  -0.02322833 [K], tailcorrection: no
     He -     C13 [LENNARD_JONES] p_0/k_B:  38.59144 [K], p_1: 2.76760 [A], shift/k_B:  -0.02322833 [K], tailcorrection: no
     He -     C14 [LENNARD_JONES] p_0/k_B:  38.59144 [K], p_1: 2.76760 [A], shift/k_B:  -0.02322833 [K], tailcorrection: no
     He -     C15 [LENNARD_JONES] p_0/k_B:  38.59144 [K], p_1: 2.76760 [A], shift/k_B:  -0.02322833 [K], tailcorrection: no
     He -     C16 [LENNARD_JONES] p_0/k_B:  38.59144 [K], p_1: 2.76760 [A], shift/k_B:  -0.02322833 [K], tailcorrection: no
     He -      O1 [LENNARD_JONES] p_0/k_B:  29.17239 [K], p_1: 2.61120 [A], shift/k_B:  -0.01238623 [K], tailcorrection: no
     He -      O2 [LENNARD_JONES] p_0/k_B:  29.17239 [K], p_1: 2.61120 [A], shift/k_B:  -0.01238623 [K], tailcorrection: no
     He -      O3 [LENNARD_JONES] p_0/k_B:  29.17239 [K], p_1: 2.61120 [A], shift/k_B:  -0.01238623 [K], tailcorrection: no
     He -      O4 [LENNARD_JONES] p_0/k_B:  29.17239 [K], p_1: 2.61120 [A], shift/k_B:  -0.01238623 [K], tailcorrection: no
     He -      O5 [LENNARD_JONES] p_0/k_B:  29.17239 [K], p_1: 2.61120 [A], shift/k_B:  -0.01238623 [K], tailcorrection: no
     He -      O6 [LENNARD_JONES] p_0/k_B:  29.17239 [K], p_1: 2.61120 [A], shift/k_B:  -0.01238623 [K], tailcorrection: no
     He -      O7 [LENNARD_JONES] p_0/k_B:  29.17239 [K], p_1: 2.61120 [A], shift/k_B:  -0.01238623 [K], tailcorrection: no
     He -      O8 [LENNARD_JONES] p_0/k_B:  29.17239 [K], p_1: 2.61120 [A], shift/k_B:  -0.01238623 [K], tailcorrection: no
     He -      O9 [LENNARD_JONES] p_0/k_B:  29.17239 [K], p_1: 2.61120 [A], shift/k_B:  -0.01238623 [K], tailcorrection: no
     He -     O10 [LENNARD_JONES] p_0/k_B:  29.17239 [K], p_1: 2.61120 [A], shift/k_B:  -0.01238623 [K], tailcorrection: no
     He -     O11 [LENNARD_JONES] p_0/k_B:  29.17239 [K], p_1: 2.61120 [A], shift/k_B:  -0.01238623 [K], tailcorrection: no
     He -     O12 [LENNARD_JONES] p_0/k_B:  29.17239 [K], p_1: 2.61120 [A], shift/k_B:  -0.01238623 [K], tailcorrection: no
     He -     O13 [LENNARD_JONES] p_0/k_B:  29.17239 [K], p_1: 2.61120 [A], shift/k_B:  -0.01238623 [K], tailcorrection: no
     He -     O14 [LENNARD_JONES] p_0/k_B:  29.17239 [K], p_1: 2.61120 [A], shift/k_B:  -0.01238623 [K], tailcorrection: no
     He -     O15 [LENNARD_JONES] p_0/k_B:  29.17239 [K], p_1: 2.61120 [A], shift/k_B:  -0.01238623 [K], tailcorrection: no
     He -     O16 [LENNARD_JONES] p_0/k_B:  29.17239 [K], p_1: 2.61120 [A], shift/k_B:  -0.01238623 [K], tailcorrection: no
     He -     O17 [LENNARD_JONES] p_0/k_B:  29.17239 [K], p_1: 2.61120 [A], shift/k_B:  -0.01238623 [K], tailcorrection: no
     He -     O18 [LENNARD_JONES] p_0/k_B:  29.17239 [K], p_1: 2.61120 [A], shift/k_B:  -0.01238623 [K], tailcorrection: no
     He -     O19 [LENNARD_JONES] p_0/k_B:  29.17239 [K], p_1: 2.61120 [A], shift/k_B:  -0.01238623 [K], tailcorrection: no
     He -     O20 [LENNARD_JONES] p_0/k_B:  29.17239 [K], p_1: 2.61120 [A], shift/k_B:  -0.01238623 [K], tailcorrection: no
     He -     O21 [LENNARD_JONES] p_0/k_B:  29.17239 [K], p_1: 2.61120 [A], shift/k_B:  -0.01238623 [K], tailcorrection: no
     He -     O22 [LENNARD_JONES] p_0/k_B:  29.17239 [K], p_1: 2.61120 [A], shift/k_B:  -0.01238623 [K], tailcorrection: no
     He -     O23 [LENNARD_JONES] p_0/k_B:  29.17239 [K], p_1: 2.61120 [A], shift/k_B:  -0.01238623 [K], tailcorrection: no
     He -     O24 [LENNARD_JONES] p_0/k_B:  29.17239 [K], p_1: 2.61120 [A], shift/k_B:  -0.01238623 [K], tailcorrection: no
     He -     O25 [LENNARD_JONES] p_0/k_B:  29.17239 [K], p_1: 2.61120 [A], shift/k_B:  -0.01238623 [K], tailcorrection: no
     He -     O26 [LENNARD_JONES] p_0/k_B:  29.17239 [K], p_1: 2.61120 [A], shift/k_B:  -0.01238623 [K], tailcorrection: no
     He -     O27 [LENNARD_JONES] p_0/k_B:  29.17239 [K], p_1: 2.61120 [A], shift/k_B:  -0.01238623 [K], tailcorrection: no
     He -     O28 [LENNARD_JONES] p_0/k_B:  29.17239 [K], p_1: 2.61120 [A], shift/k_B:  -0.01238623 [K], tailcorrection: no
     He -     O29 [LENNARD_JONES] p_0/k_B:  29.17239 [K], p_1: 2.61120 [A], shift/k_B:  -0.01238623 [K], tailcorrection: no
     He -     O30 [LENNARD_JONES] p_0/k_B:  29.17239 [K], p_1: 2.61120 [A], shift/k_B:  -0.01238623 [K], tailcorrection: no
     He -     O31 [LENNARD_JONES] p_0/k_B:  29.17239 [K], p_1: 2.61120 [A], shift/k_B:  -0.01238623 [K], tailcorrection: no
     He -     O32 [LENNARD_JONES] p_0/k_B:  29.17239 [K], p_1: 2.61120 [A], shift/k_B:  -0.01238623 [K], tailcorrection: no
     He -     O33 [LENNARD_JONES] p_0/k_B:  29.17239 [K], p_1: 2.61120 [A], shift/k_B:  -0.01238623 [K], tailcorrection: no
     He -     O34 [LENNARD_JONES] p_0/k_B:  29.17239 [K], p_1: 2.61120 [A], shift/k_B:  -0.01238623 [K], tailcorrection: no
     He -     O35 [LENNARD_JONES] p_0/k_B:  29.17239 [K], p_1: 2.61120 [A], shift/k_B:  -0.01238623 [K], tailcorrection: no
     He -     O36 [LENNARD_JONES] p_0/k_B:  29.17239 [K], p_1: 2.61120 [A], shift/k_B:  -0.01238623 [K], tailcorrection: no
     He -     O37 [LENNARD_JONES] p_0/k_B:  29.17239 [K], p_1: 2.61120 [A], shift/k_B:  -0.01238623 [K], tailcorrection: no
     He -     O38 [LENNARD_JONES] p_0/k_B:  29.17239 [K], p_1: 2.61120 [A], shift/k_B:  -0.01238623 [K], tailcorrection: no
     He -     O39 [LENNARD_JONES] p_0/k_B:  29.17239 [K], p_1: 2.61120 [A], shift/k_B:  -0.01238623 [K], tailcorrection: no
     He -     O40 [LENNARD_JONES] p_0/k_B:  29.17239 [K], p_1: 2.61120 [A], shift/k_B:  -0.01238623 [K], tailcorrection: no
     He -     O41 [LENNARD_JONES] p_0/k_B:  29.17239 [K], p_1: 2.61120 [A], shift/k_B:  -0.01238623 [K], tailcorrection: no
     He -     O42 [LENNARD_JONES] p_0/k_B:  29.17239 [K], p_1: 2.61120 [A], shift/k_B:  -0.01238623 [K], tailcorrection: no
     He -     O43 [LENNARD_JONES] p_0/k_B:  29.17239 [K], p_1: 2.61120 [A], shift/k_B:  -0.01238623 [K], tailcorrection: no
     He -     O44 [LENNARD_JONES] p_0/k_B:  29.17239 [K], p_1: 2.61120 [A], shift/k_B:  -0.01238623 [K], tailcorrection: no
     He -     O45 [LENNARD_JONES] p_0/k_B:  29.17239 [K], p_1: 2.61120 [A], shift/k_B:  -0.01238623 [K], tailcorrection: no
     He -     O46 [LENNARD_JONES] p_0/k_B:  29.17239 [K], p_1: 2.61120 [A], shift/k_B:  -0.01238623 [K], tailcorrection: no
     He -     O47 [LENNARD_JONES] p_0/k_B:  29.17239 [K], p_1: 2.61120 [A], shift/k_B:  -0.01238623 [K], tailcorrection: no
     He -     O48 [LENNARD_JONES] p_0/k_B:  29.17239 [K], p_1: 2.61120 [A], shift/k_B:  -0.01238623 [K], tailcorrection: no
     He -     O49 [LENNARD_JONES] p_0/k_B:  29.17239 [K], p_1: 2.61120 [A], shift/k_B:  -0.01238623 [K], tailcorrection: no
     He -     O50 [LENNARD_JONES] p_0/k_B:  29.17239 [K], p_1: 2.61120 [A], shift/k_B:  -0.01238623 [K], tailcorrection: no
     He -     O51 [LENNARD_JONES] p_0/k_B:  29.17239 [K], p_1: 2.61120 [A], shift/k_B:  -0.01238623 [K], tailcorrection: no
     He -     O52 [LENNARD_JONES] p_0/k_B:  29.17239 [K], p_1: 2.61120 [A], shift/k_B:  -0.01238623 [K], tailcorrection: no
     He -     O53 [LENNARD_JONES] p_0/k_B:  29.17239 [K], p_1: 2.61120 [A], shift/k_B:  -0.01238623 [K], tailcorrection: no
     He -     O54 [LENNARD_JONES] p_0/k_B:  29.17239 [K], p_1: 2.61120 [A], shift/k_B:  -0.01238623 [K], tailcorrection: no
     He -     O55 [LENNARD_JONES] p_0/k_B:  29.17239 [K], p_1: 2.61120 [A], shift/k_B:  -0.01238623 [K], tailcorrection: no
     He -     O56 [LENNARD_JONES] p_0/k_B:  29.17239 [K], p_1: 2.61120 [A], shift/k_B:  -0.01238623 [K], tailcorrection: no
     He -     O57 [LENNARD_JONES] p_0/k_B:  29.17239 [K], p_1: 2.61120 [A], shift/k_B:  -0.01238623 [K], tailcorrection: no
     He -     O58 [LENNARD_JONES] p_0/k_B:  29.17239 [K], p_1: 2.61120 [A], shift/k_B:  -0.01238623 [K], tailcorrection: no
     He -     O59 [LENNARD_JONES] p_0/k_B:  29.17239 [K], p_1: 2.61120 [A], shift/k_B:  -0.01238623 [K], tailcorrection: no
     He -     O60 [LENNARD_JONES] p_0/k_B:  29.17239 [K], p_1: 2.61120 [A], shift/k_B:  -0.01238623 [K], tailcorrection: no
     He -     O61 [LENNARD_JONES] p_0/k_B:  29.17239 [K], p_1: 2.61120 [A], shift/k_B:  -0.01238623 [K], tailcorrection: no
     He -     O62 [LENNARD_JONES] p_0/k_B:  29.17239 [K], p_1: 2.61120 [A], shift/k_B:  -0.01238623 [K], tailcorrection: no
     He -     O63 [LENNARD_JONES] p_0/k_B:  29.17239 [K], p_1: 2.61120 [A], shift/k_B:  -0.01238623 [K], tailcorrection: no
     He -     O64 [LENNARD_JONES] p_0/k_B:  29.17239 [K], p_1: 2.61120 [A], shift/k_B:  -0.01238623 [K], tailcorrection: no
  C_co2 -   C_co2 [LENNARD_JONES] p_0/k_B:  29.93300 [K], p_1: 2.74500 [A], shift/k_B:  -0.01715199 [K], tailcorrection: no
  C_co2 -   O_co2 [LENNARD_JONES] p_0/k_B:  50.63981 [K], p_1: 2.88100 [A], shift/k_B:  -0.03878296 [K], tailcorrection: no
  C_co2 -    O_o2 [LENNARD_JONES] p_0/k_B:  30.06436 [K], p_1: 2.93155 [A], shift/k_B:  -0.02555736 [K], tailcorrection: no
  C_co2 -   O_com [LENNARD_JONES] p_0/k_B:  30.06436 [K], p_1: 2.93155 [A], shift/k_B:  -0.02555736 [K], tailcorrection: no
  C_co2 -    N_n2 [LENNARD_JONES] p_0/k_B:  32.24042 [K], p_1: 3.00285 [A], shift/k_B:  -0.03165690 [K], tailcorrection: no
  C_co2 -   N_com [LENNARD_JONES] p_0/k_B:  32.24042 [K], p_1: 3.00285 [A], shift/k_B:  -0.03165690 [K], tailcorrection: no
  C_co2 -      Ar [LENNARD_JONES] p_0/k_B:  52.79127 [K], p_1: 3.09550 [A], shift/k_B:  -0.06220016 [K], tailcorrection: no
  C_co2 -     CH4 [LENNARD_JONES] p_0/k_B:  39.77140 [K], p_1: 3.08795 [A], shift/k_B:  -0.04617840 [K], tailcorrection: no
  C_co2 -     CH3 [LENNARD_JONES] p_0/k_B:  39.77140 [K], p_1: 3.08795 [A], shift/k_B:  -0.04617840 [K], tailcorrection: no
  C_co2 -     CH2 [LENNARD_JONES] p_0/k_B:  39.77140 [K], p_1: 3.08795 [A], shift/k_B:  -0.04617840 [K], tailcorrection: no
  C_co2 -      CH [LENNARD_JONES] p_0/k_B:  39.77140 [K], p_1: 3.08795 [A], shift/k_B:  -0.04617840 [K], tailcorrection: no
  C_co2 -       C [LENNARD_JONES] p_0/k_B:  39.77140 [K], p_1: 3.08795 [A], shift/k_B:  -0.04617840 [K], tailcorrection: no
  C_co2 -      Hw [LENNARD_JONES] p_0/k_B:  25.74555 [K], p_1: 2.65805 [A], shift/k_B:  -0.01216192 [K], tailcorrection: no
  C_co2 -      Ow [LENNARD_JONES] p_0/k_B:  30.06436 [K], p_1: 2.93155 [A], shift/k_B:  -0.02555736 [K], tailcorrection: no
  C_co2 -     La1 [LENNARD_JONES] p_0/k_B:  16.00296 [K], p_1: 2.94135 [A], shift/k_B:  -0.01387902 [K], tailcorrection: no
  C_co2 -     La2 [LENNARD_JONES] p_0/k_B:  16.00296 [K], p_1: 2.94135 [A], shift/k_B:  -0.01387902 [K], tailcorrection: no
  C_co2 -     La3 [LENNARD_JONES] p_0/k_B:  16.00296 [K], p_1: 2.94135 [A], shift/k_B:  -0.01387902 [K], tailcorrection: no
  C_co2 -     La4 [LENNARD_JONES] p_0/k_B:  16.00296 [K], p_1: 2.94135 [A], shift/k_B:  -0.01387902 [K], tailcorrection: no
  C_co2 -     La5 [LENNARD_JONES] p_0/k_B:  16.00296 [K], p_1: 2.94135 [A], shift/k_B:  -0.01387902 [K], tailcorrection: no
  C_co2 -     La6 [LENNARD_JONES] p_0/k_B:  16.00296 [K], p_1: 2.94135 [A], shift/k_B:  -0.01387902 [K], tailcorrection: no
  C_co2 -      P1 [LENNARD_JONES] p_0/k_B:  67.78382 [K], p_1: 3.21980 [A], shift/k_B:  -0.10113695 [K], tailcorrection: no
  C_co2 -      P2 [LENNARD_JONES] p_0/k_B:  67.78382 [K], p_1: 3.21980 [A], shift/k_B:  -0.10113695 [K], tailcorrection: no
  C_co2 -      P3 [LENNARD_JONES] p_0/k_B:  67.78382 [K], p_1: 3.21980 [A], shift/k_B:  -0.10113695 [K], tailcorrection: no
  C_co2 -      P4 [LENNARD_JONES] p_0/k_B:  67.78382 [K], p_1: 3.21980 [A], shift/k_B:  -0.10113695 [K], tailcorrection: no
  C_co2 -      P5 [LENNARD_JONES] p_0/k_B:  67.78382 [K], p_1: 3.21980 [A], shift/k_B:  -0.10113695 [K], tailcorrection: no
  C_co2 -      P6 [LENNARD_JONES] p_0/k_B:  67.78382 [K], p_1: 3.21980 [A], shift/k_B:  -0.10113695 [K], tailcorrection: no
  C_co2 -      P7 [LENNARD_JONES] p_0/k_B:  67.78382 [K], p_1: 3.21980 [A], shift/k_B:  -0.10113695 [K], tailcorrection: no
  C_co2 -      P8 [LENNARD_JONES] p_0/k_B:  67.78382 [K], p_1: 3.21980 [A], shift/k_B:  -0.10113695 [K], tailcorrection: no
  C_co2 -      C1 [LENNARD_JONES] p_0/k_B:  39.77140 [K], p_1: 3.08795 [A], shift/k_B:  -0.04617840 [K], tailcorrection: no
  C_co2 -      C2 [LENNARD_JONES] p_0/k_B:  39.77140 [K], p_1: 3.08795 [A], shift/k_B:  -0.04617840 [K], tailcorrection: no
  C_co2 -      C3 [LENNARD_JONES] p_0/k_B:  39.77140 [K], p_1: 3.08795 [A], shift/k_B:  -0.04617840 [K], tailcorrection: no
  C_co2 -      C4 [LENNARD_JONES] p_0/k_B:  39.77140 [K], p_1: 3.08795 [A], shift/k_B:  -0.04617840 [K], tailcorrection: no
  C_co2 -      C5 [LENNARD_JONES] p_0/k_B:  39.77140 [K], p_1: 3.08795 [A], shift/k_B:  -0.04617840 [K], tailcorrection: no
  C_co2 -      C6 [LENNARD_JONES] p_0/k_B:  39.77140 [K], p_1: 3.08795 [A], shift/k_B:  -0.04617840 [K], tailcorrection: no
  C_co2 -      C7 [LENNARD_JONES] p_0/k_B:  39.77140 [K], p_1: 3.08795 [A], shift/k_B:  -0.04617840 [K], tailcorrection: no
  C_co2 -      C8 [LENNARD_JONES] p_0/k_B:  39.77140 [K], p_1: 3.08795 [A], shift/k_B:  -0.04617840 [K], tailcorrection: no
  C_co2 -      C9 [LENNARD_JONES] p_0/k_B:  39.77140 [K], p_1: 3.08795 [A], shift/k_B:  -0.04617840 [K], tailcorrection: no
  C_co2 -     C10 [LENNARD_JONES] p_0/k_B:  39.77140 [K], p_1: 3.08795 [A], shift/k_B:  -0.04617840 [K], tailcorrection: no
  C_co2 -     C11 [LENNARD_JONES] p_0/k_B:  39.77140 [K], p_1: 3.08795 [A], shift/k_B:  -0.04617840 [K], tailcorrection: no
  C_co2 -     C12 [LENNARD_JONES] p_0/k_B:  39.77140 [K], p_1: 3.08795 [A], shift/k_B:  -0.04617840 [K], tailcorrection: no
  C_co2 -     C13 [LENNARD_JONES] p_0/k_B:  39.77140 [K], p_1: 3.08795 [A], shift/k_B:  -0.04617840 [K], tailcorrection: no
  C_co2 -     C14 [LENNARD_JONES] p_0/k_B:  39.77140 [K], p_1: 3.08795 [A], shift/k_B:  -0.04617840 [K], tailcorrection: no
  C_co2 -     C15 [LENNARD_JONES] p_0/k_B:  39.77140 [K], p_1: 3.08795 [A], shift/k_B:  -0.04617840 [K], tailcorrection: no
  C_co2 -     C16 [LENNARD_JONES] p_0/k_B:  39.77140 [K], p_1: 3.08795 [A], shift/k_B:  -0.04617840 [K], tailcorrection: no
  C_co2 -      O1 [LENNARD_JONES] p_0/k_B:  30.06436 [K], p_1: 2.93155 [A], shift/k_B:  -0.02555736 [K], tailcorrection: no
  C_co2 -      O2 [LENNARD_JONES] p_0/k_B:  30.06436 [K], p_1: 2.93155 [A], shift/k_B:  -0.02555736 [K], tailcorrection: no
  C_co2 -      O3 [LENNARD_JONES] p_0/k_B:  30.06436 [K], p_1: 2.93155 [A], shift/k_B:  -0.02555736 [K], tailcorrection: no
  C_co2 -      O4 [LENNARD_JONES] p_0/k_B:  30.06436 [K], p_1: 2.93155 [A], shift/k_B:  -0.02555736 [K], tailcorrection: no
  C_co2 -      O5 [LENNARD_JONES] p_0/k_B:  30.06436 [K], p_1: 2.93155 [A], shift/k_B:  -0.02555736 [K], tailcorrection: no
  C_co2 -      O6 [LENNARD_JONES] p_0/k_B:  30.06436 [K], p_1: 2.93155 [A], shift/k_B:  -0.02555736 [K], tailcorrection: no
  C_co2 -      O7 [LENNARD_JONES] p_0/k_B:  30.06436 [K], p_1: 2.93155 [A], shift/k_B:  -0.02555736 [K], tailcorrection: no
  C_co2 -      O8 [LENNARD_JONES] p_0/k_B:  30.06436 [K], p_1: 2.93155 [A], shift/k_B:  -0.02555736 [K], tailcorrection: no
  C_co2 -      O9 [LENNARD_JONES] p_0/k_B:  30.06436 [K], p_1: 2.93155 [A], shift/k_B:  -0.02555736 [K], tailcorrection: no
  C_co2 -     O10 [LENNARD_JONES] p_0/k_B:  30.06436 [K], p_1: 2.93155 [A], shift/k_B:  -0.02555736 [K], tailcorrection: no
  C_co2 -     O11 [LENNARD_JONES] p_0/k_B:  30.06436 [K], p_1: 2.93155 [A], shift/k_B:  -0.02555736 [K], tailcorrection: no
  C_co2 -     O12 [LENNARD_JONES] p_0/k_B:  30.06436 [K], p_1: 2.93155 [A], shift/k_B:  -0.02555736 [K], tailcorrection: no
  C_co2 -     O13 [LENNARD_JONES] p_0/k_B:  30.06436 [K], p_1: 2.93155 [A], shift/k_B:  -0.02555736 [K], tailcorrection: no
  C_co2 -     O14 [LENNARD_JONES] p_0/k_B:  30.06436 [K], p_1: 2.93155 [A], shift/k_B:  -0.02555736 [K], tailcorrection: no
  C_co2 -     O15 [LENNARD_JONES] p_0/k_B:  30.06436 [K], p_1: 2.93155 [A], shift/k_B:  -0.02555736 [K], tailcorrection: no
  C_co2 -     O16 [LENNARD_JONES] p_0/k_B:  30.06436 [K], p_1: 2.93155 [A], shift/k_B:  -0.02555736 [K], tailcorrection: no
  C_co2 -     O17 [LENNARD_JONES] p_0/k_B:  30.06436 [K], p_1: 2.93155 [A], shift/k_B:  -0.02555736 [K], tailcorrection: no
  C_co2 -     O18 [LENNARD_JONES] p_0/k_B:  30.06436 [K], p_1: 2.93155 [A], shift/k_B:  -0.02555736 [K], tailcorrection: no
  C_co2 -     O19 [LENNARD_JONES] p_0/k_B:  30.06436 [K], p_1: 2.93155 [A], shift/k_B:  -0.02555736 [K], tailcorrection: no
  C_co2 -     O20 [LENNARD_JONES] p_0/k_B:  30.06436 [K], p_1: 2.93155 [A], shift/k_B:  -0.02555736 [K], tailcorrection: no
  C_co2 -     O21 [LENNARD_JONES] p_0/k_B:  30.06436 [K], p_1: 2.93155 [A], shift/k_B:  -0.02555736 [K], tailcorrection: no
  C_co2 -     O22 [LENNARD_JONES] p_0/k_B:  30.06436 [K], p_1: 2.93155 [A], shift/k_B:  -0.02555736 [K], tailcorrection: no
  C_co2 -     O23 [LENNARD_JONES] p_0/k_B:  30.06436 [K], p_1: 2.93155 [A], shift/k_B:  -0.02555736 [K], tailcorrection: no
  C_co2 -     O24 [LENNARD_JONES] p_0/k_B:  30.06436 [K], p_1: 2.93155 [A], shift/k_B:  -0.02555736 [K], tailcorrection: no
  C_co2 -     O25 [LENNARD_JONES] p_0/k_B:  30.06436 [K], p_1: 2.93155 [A], shift/k_B:  -0.02555736 [K], tailcorrection: no
  C_co2 -     O26 [LENNARD_JONES] p_0/k_B:  30.06436 [K], p_1: 2.93155 [A], shift/k_B:  -0.02555736 [K], tailcorrection: no
  C_co2 -     O27 [LENNARD_JONES] p_0/k_B:  30.06436 [K], p_1: 2.93155 [A], shift/k_B:  -0.02555736 [K], tailcorrection: no
  C_co2 -     O28 [LENNARD_JONES] p_0/k_B:  30.06436 [K], p_1: 2.93155 [A], shift/k_B:  -0.02555736 [K], tailcorrection: no
  C_co2 -     O29 [LENNARD_JONES] p_0/k_B:  30.06436 [K], p_1: 2.93155 [A], shift/k_B:  -0.02555736 [K], tailcorrection: no
  C_co2 -     O30 [LENNARD_JONES] p_0/k_B:  30.06436 [K], p_1: 2.93155 [A], shift/k_B:  -0.02555736 [K], tailcorrection: no
  C_co2 -     O31 [LENNARD_JONES] p_0/k_B:  30.06436 [K], p_1: 2.93155 [A], shift/k_B:  -0.02555736 [K], tailcorrection: no
  C_co2 -     O32 [LENNARD_JONES] p_0/k_B:  30.06436 [K], p_1: 2.93155 [A], shift/k_B:  -0.02555736 [K], tailcorrection: no
  C_co2 -     O33 [LENNARD_JONES] p_0/k_B:  30.06436 [K], p_1: 2.93155 [A], shift/k_B:  -0.02555736 [K], tailcorrection: no
  C_co2 -     O34 [LENNARD_JONES] p_0/k_B:  30.06436 [K], p_1: 2.93155 [A], shift/k_B:  -0.02555736 [K], tailcorrection: no
  C_co2 -     O35 [LENNARD_JONES] p_0/k_B:  30.06436 [K], p_1: 2.93155 [A], shift/k_B:  -0.02555736 [K], tailcorrection: no
  C_co2 -     O36 [LENNARD_JONES] p_0/k_B:  30.06436 [K], p_1: 2.93155 [A], shift/k_B:  -0.02555736 [K], tailcorrection: no
  C_co2 -     O37 [LENNARD_JONES] p_0/k_B:  30.06436 [K], p_1: 2.93155 [A], shift/k_B:  -0.02555736 [K], tailcorrection: no
  C_co2 -     O38 [LENNARD_JONES] p_0/k_B:  30.06436 [K], p_1: 2.93155 [A], shift/k_B:  -0.02555736 [K], tailcorrection: no
  C_co2 -     O39 [LENNARD_JONES] p_0/k_B:  30.06436 [K], p_1: 2.93155 [A], shift/k_B:  -0.02555736 [K], tailcorrection: no
[...]
=======================================
	Block[ 0]            0.00000 [K]
	Block[ 1]            0.00000 [K]
	Block[ 2]            0.00000 [K]
	Block[ 3]            0.00000 [K]
	Block[ 4]            0.00000 [K]
	------------------------------------------------------------------------------
	Average              0.00000 [K] +/-            0.00000 [K]

Average Cation Bond-Bond cross term energy:
=================================================
	Block[ 0]            0.00000 [K]
	Block[ 1]            0.00000 [K]
	Block[ 2]            0.00000 [K]
	Block[ 3]            0.00000 [K]
	Block[ 4]            0.00000 [K]
	------------------------------------------------------------------------------
	Average              0.00000 [K] +/-            0.00000 [K]

Average Cation Bend-Bend cross term energy:
===========================================
	Block[ 0]            0.00000 [K]
	Block[ 1]            0.00000 [K]
	Block[ 2]            0.00000 [K]
	Block[ 3]            0.00000 [K]
	Block[ 4]            0.00000 [K]
	------------------------------------------------------------------------------
	Average              0.00000 [K] +/-            0.00000 [K]

Average Cation Bond-Bend cross term energy:
==============================================
	Block[ 0]            0.00000 [K]
	Block[ 1]            0.00000 [K]
	Block[ 2]            0.00000 [K]
	Block[ 3]            0.00000 [K]
	Block[ 4]            0.00000 [K]
	------------------------------------------------------------------------------
	Average              0.00000 [K] +/-            0.00000 [K]

Average Cation Bond-Torsion cross term energy:
==============================================
	Block[ 0]            0.00000 [K]
	Block[ 1]            0.00000 [K]
	Block[ 2]            0.00000 [K]
	Block[ 3]            0.00000 [K]
	Block[ 4]            0.00000 [K]
	------------------------------------------------------------------------------
	Average              0.00000 [K] +/-            0.00000 [K]

Average Cation Bend-Torsion cross term energy:
==============================================
	Block[ 0]            0.00000 [K]
	Block[ 1]            0.00000 [K]
	Block[ 2]            0.00000 [K]
	Block[ 3]            0.00000 [K]
	Block[ 4]            0.00000 [K]
	------------------------------------------------------------------------------
	Average              0.00000 [K] +/-            0.00000 [K]

Average Cation Intra Van der Waals energy:
==========================================
	Block[ 0]            0.00000 [K]
	Block[ 1]            0.00000 [K]
	Block[ 2]            0.00000 [K]
	Block[ 3]            0.00000 [K]
	Block[ 4]            0.00000 [K]
	------------------------------------------------------------------------------
	Average              0.00000 [K] +/-            0.00000 [K]

Average Cation Intra charge-charge Coulomb energy:
====================================
	Block[ 0]            0.00000 [K]
	Block[ 1]            0.00000 [K]
	Block[ 2]            0.00000 [K]
	Block[ 3]            0.00000 [K]
	Block[ 4]            0.00000 [K]
	------------------------------------------------------------------------------
	Average              0.00000 [K] +/-            0.00000 [K]

Average Cation Intra charge-bonddipole Coulomb energy:
====================================
	Block[ 0]            0.00000 [K]
	Block[ 1]            0.00000 [K]
	Block[ 2]            0.00000 [K]
	Block[ 3]            0.00000 [K]
	Block[ 4]            0.00000 [K]
	------------------------------------------------------------------------------
	Average              0.00000 [K] +/-            0.00000 [K]

Average Cation Intra bonddipole-bonddipole Coulomb energy:
====================================
	Block[ 0]            0.00000 [K]
	Block[ 1]            0.00000 [K]
	Block[ 2]            0.00000 [K]
	Block[ 3]            0.00000 [K]
	Block[ 4]            0.00000 [K]
	------------------------------------------------------------------------------
	Average              0.00000 [K] +/-            0.00000 [K]

Average Host-Host energy:
=========================
	Block[ 0] 0.00000            Van der Waals: 0.00000            Coulomb: 0.00000            [K]
	Block[ 1] 0.00000            Van der Waals: 0.00000            Coulomb: 0.00000            [K]
	Block[ 2] 0.00000            Van der Waals: 0.00000            Coulomb: 0.00000            [K]
	Block[ 3] 0.00000            Van der Waals: 0.00000            Coulomb: 0.00000            [K]
	Block[ 4] 0.00000            Van der Waals: 0.00000            Coulomb: 0.00000            [K]
	------------------------------------------------------------------------------
	Average   0.00000            Van der Waals: 0.000000           Coulomb: 0.00000            [K]
	      +/- 0.00000                       +/- 0.000000                +/- 0.00000            [K]

Average Adsorbate-Adsorbate energy:
===================================
	Block[ 0] 0.00000            Van der Waals: 0.00000            Coulomb: 0.00000            [K]
	Block[ 1] 0.00000            Van der Waals: 0.00000            Coulomb: 0.00000            [K]
	Block[ 2] 0.00000            Van der Waals: 0.00000            Coulomb: 0.00000            [K]
	Block[ 3] 0.00000            Van der Waals: 0.00000            Coulomb: 0.00000            [K]
	Block[ 4] 0.00000            Van der Waals: 0.00000            Coulomb: 0.00000            [K]
	------------------------------------------------------------------------------
	Average   0.00000            Van der Waals: 0.000000           Coulomb: 0.00000            [K]
	      +/- 0.00000                       +/- 0.000000                +/- 0.00000            [K]

Average Cation-Cation energy:
=============================
	Block[ 0] 0.00000            Van der Waals: 0.00000            Coulomb: 0.00000            [K]
	Block[ 1] 0.00000            Van der Waals: 0.00000            Coulomb: 0.00000            [K]
	Block[ 2] 0.00000            Van der Waals: 0.00000            Coulomb: 0.00000            [K]
	Block[ 3] 0.00000            Van der Waals: 0.00000            Coulomb: 0.00000            [K]
	Block[ 4] 0.00000            Van der Waals: 0.00000            Coulomb: 0.00000            [K]
	------------------------------------------------------------------------------
	Average   0.00000            Van der Waals: 0.000000           Coulomb: 0.00000            [K]
	      +/- 0.00000                       +/- 0.000000                +/- 0.00000            [K]

Average Host-Adsorbate energy:
==============================
	Block[ 0] 0.00000            Van der Waals: 0.00000            Coulomb: 0.00000            [K]
	Block[ 1] 0.00000            Van der Waals: 0.00000            Coulomb: 0.00000            [K]
	Block[ 2] 0.00000            Van der Waals: 0.00000            Coulomb: 0.00000            [K]
	Block[ 3] 0.00000            Van der Waals: 0.00000            Coulomb: 0.00000            [K]
	Block[ 4] 0.00000            Van der Waals: 0.00000            Coulomb: 0.00000            [K]
	------------------------------------------------------------------------------
	Average   0.00000            Van der Waals: 0.000000           Coulomb: 0.00000            [K]
	      +/- 0.00000                       +/- 0.000000                +/- 0.00000            [K]

Average Host-Cation energy:
===========================
	Block[ 0] 0.00000            Van der Waals: 0.00000            Coulomb: 0.00000            [K]
	Block[ 1] 0.00000            Van der Waals: 0.00000            Coulomb: 0.00000            [K]
	Block[ 2] 0.00000            Van der Waals: 0.00000            Coulomb: 0.00000            [K]
	Block[ 3] 0.00000            Van der Waals: 0.00000            Coulomb: 0.00000            [K]
	Block[ 4] 0.00000            Van der Waals: 0.00000            Coulomb: 0.00000            [K]
	------------------------------------------------------------------------------
	Average   0.00000            Van der Waals: 0.000000           Coulomb: 0.00000            [K]
	      +/- 0.00000                       +/- 0.000000                +/- 0.00000            [K]

Average Adsorbate-Cation energy:
================================
	Block[ 0] 0.00000            Van der Waals: 0.00000            Coulomb: 0.00000            [K]
	Block[ 1] 0.00000            Van der Waals: 0.00000            Coulomb: 0.00000            [K]
	Block[ 2] 0.00000            Van der Waals: 0.00000            Coulomb: 0.00000            [K]
	Block[ 3] 0.00000            Van der Waals: 0.00000            Coulomb: 0.00000            [K]
	Block[ 4] 0.00000            Van der Waals: 0.00000            Coulomb: 0.00000            [K]
	------------------------------------------------------------------------------
	Average   0.00000            Van der Waals: 0.000000           Coulomb: 0.00000            [K]
	      +/- 0.00000                       +/- 0.000000                +/- 0.00000            [K]

Host polarization energy:
=======================
	Block[ 0]            0.00000 [K]
	Block[ 1]            0.00000 [K]
	Block[ 2]            0.00000 [K]
	Block[ 3]            0.00000 [K]
	Block[ 4]            0.00000 [K]
	------------------------------------------------------------------------------
	Average              0.00000 [K] +/-            0.00000 [K]

Adsorbate polarization energy:
=======================
	Block[ 0]            0.00000 [K]
	Block[ 1]            0.00000 [K]
	Block[ 2]            0.00000 [K]
	Block[ 3]            0.00000 [K]
	Block[ 4]            0.00000 [K]
	------------------------------------------------------------------------------
	Average              0.00000 [K] +/-            0.00000 [K]

Cation polarization energy:
=======================
	Block[ 0]            0.00000 [K]
	Block[ 1]            0.00000 [K]
	Block[ 2]            0.00000 [K]
	Block[ 3]            0.00000 [K]
	Block[ 4]            0.00000 [K]
	------------------------------------------------------------------------------
	Average              0.00000 [K] +/-            0.00000 [K]

Host back-polarization energy:
=======================
	Block[ 0]            0.00000 [K]
	Block[ 1]            0.00000 [K]
	Block[ 2]            0.00000 [K]
	Block[ 3]            0.00000 [K]
	Block[ 4]            0.00000 [K]
	------------------------------------------------------------------------------
	Average              0.00000 [K] +/-            0.00000 [K]

Adsorbate back-polarization energy:
=======================
	Block[ 0]            0.00000 [K]
	Block[ 1]            0.00000 [K]
	Block[ 2]            0.00000 [K]
	Block[ 3]            0.00000 [K]
	Block[ 4]            0.00000 [K]
	------------------------------------------------------------------------------
	Average              0.00000 [K] +/-            0.00000 [K]

Cation back-polarization energy:
=======================
	Block[ 0]            0.00000 [K]
	Block[ 1]            0.00000 [K]
	Block[ 2]            0.00000 [K]
	Block[ 3]            0.00000 [K]
	Block[ 4]            0.00000 [K]
	------------------------------------------------------------------------------
	Average              0.00000 [K] +/-            0.00000 [K]

Tail-correction energy:
=======================
	Block[ 0]            0.00000 [K]
	Block[ 1]            0.00000 [K]
	Block[ 2]            0.00000 [K]
	Block[ 3]            0.00000 [K]
	Block[ 4]            0.00000 [K]
	------------------------------------------------------------------------------
	Average              0.00000 [K] +/-            0.00000 [K]

Distance-constraints energy:
=======================
	Block[ 0]            0.00000 [K]
	Block[ 1]            0.00000 [K]
	Block[ 2]            0.00000 [K]
	Block[ 3]            0.00000 [K]
	Block[ 4]            0.00000 [K]
	------------------------------------------------------------------------------
	Average              0.00000 [K] +/-            0.00000 [K]

Angle-constraints energy:
=======================
	Block[ 0]            0.00000 [K]
	Block[ 1]            0.00000 [K]
	Block[ 2]            0.00000 [K]
	Block[ 3]            0.00000 [K]
	Block[ 4]            0.00000 [K]
	------------------------------------------------------------------------------
	Average              0.00000 [K] +/-            0.00000 [K]

Dihedral-constraints energy:
=======================
	Block[ 0]            0.00000 [K]
	Block[ 1]            0.00000 [K]
	Block[ 2]            0.00000 [K]
	Block[ 3]            0.00000 [K]
	Block[ 4]            0.00000 [K]
	------------------------------------------------------------------------------
	Average              0.00000 [K] +/-            0.00000 [K]

Inversion-bend constraints energy:
=======================
	Block[ 0]            0.00000 [K]
	Block[ 1]            0.00000 [K]
	Block[ 2]            0.00000 [K]
	Block[ 3]            0.00000 [K]
	Block[ 4]            0.00000 [K]
	------------------------------------------------------------------------------
	Average              0.00000 [K] +/-            0.00000 [K]

Out-of-plane-distance constraints energy:
=======================
	Block[ 0]            0.00000 [K]
	Block[ 1]            0.00000 [K]
	Block[ 2]            0.00000 [K]
	Block[ 3]            0.00000 [K]
	Block[ 4]            0.00000 [K]
	------------------------------------------------------------------------------
	Average              0.00000 [K] +/-            0.00000 [K]

Exclusion-constraints energy:
=======================
	Block[ 0]            0.00000 [K]
	Block[ 1]            0.00000 [K]
	Block[ 2]            0.00000 [K]
	Block[ 3]            0.00000 [K]
	Block[ 4]            0.00000 [K]
	------------------------------------------------------------------------------
	Average              0.00000 [K] +/-            0.00000 [K]

Total energy:
=============
	Block[ 0]            0.00000 [K]
	Block[ 1]            0.00000 [K]
	Block[ 2]            0.00000 [K]
	Block[ 3]            0.00000 [K]
	Block[ 4]            0.00000 [K]
	------------------------------------------------------------------------------
	Average              0.00000 [K] +/-            0.00000 [K]

Number of molecules:
====================

Component 0 [CO2]
-------------------------------------------------------------
	Block[ 0] 0.00000            [-]
	Block[ 1] 0.00000            [-]
	Block[ 2] 0.00000            [-]
	Block[ 3] 0.00000            [-]
	Block[ 4] 0.00000            [-]
	------------------------------------------------------------------------------
	Average loading absolute                              0.0000000000 +/-       0.0000000000 [-]
	Average loading absolute [molecules/unit cell]        0.0000000000 +/-       0.0000000000 [-]
	Average loading absolute [mol/kg framework]                  0.0000000000 +/-       0.0000000000 [-]
	Average loading absolute [milligram/gram framework]          0.0000000000 +/-       0.0000000000 [-]
	Average loading absolute [cm^3 (STP)/gr framework]           0.0000000000 +/-       0.0000000000 [-]
	Average loading absolute [cm^3 (STP)/cm^3 framework]         0.0000000000 +/-       0.0000000000 [-]

	Block[ 0] 0.00000            [-]
	Block[ 1] 0.00000            [-]
	Block[ 2] 0.00000            [-]
	Block[ 3] 0.00000            [-]
	Block[ 4] 0.00000            [-]
	------------------------------------------------------------------------------
	Average loading excess                              0.0000000000 +/-       0.0000000000 [-]
	Average loading excess [molecules/unit cell]        0.0000000000 +/-       0.0000000000 [-]
	Average loading excess [mol/kg framework]                    0.0000000000 +/-       0.0000000000 [-]
	Average loading excess [milligram/gram framework]            0.0000000000 +/-       0.0000000000 [-]
	Average loading excess [cm^3 (STP)/gr framework]             0.0000000000 +/-       0.0000000000 [-]
	Average loading excess [cm^3 (STP)/cm^3 framework]           0.0000000000 +/-       0.0000000000 [-]


Average Widom Rosenbluth factor:
================================
	Block[ 0] 8.20816 [-]
	Block[ 1] 8.2129 [-]
	Block[ 2] 8.20276 [-]
	Block[ 3] 8.14112 [-]
	Block[ 4] 8.19225 [-]
	------------------------------------------------------------------------------
	[CO2] Average Widom Rosenbluth-weight:   8.19144 +/- 0.036200 [-]

Average Widom chemical potential:
=================================
	Block[ 0] -3634.41 [-]
	Block[ 1] -3634.58 [-]
	Block[ 2] -3634.22 [-]
	Block[ 3] -3631.97 [-]
	Block[ 4] -3633.83 [-]
	------------------------------------------------------------------------------
	[CO2] Average chemical potential:   -3633.8 +/- 1.319580 [K]

Average Widom Ideal-gas contribution:
=====================================
	Block[ 0] -3007.08 [-]
	Block[ 1] -3007.08 [-]
	Block[ 2] -3007.08 [-]
	Block[ 3] -3007.08 [-]
	Block[ 4] -3007.08 [-]
	------------------------------------------------------------------------------
	[CO2] Average Widom Ideal-gas chemical potential:   -3007.08 +/- 0.000000 [-]

Average Widom excess contribution:
==================================
	Block[ 0] -627.329 [-]
	Block[ 1] -627.501 [-]
	Block[ 2] -627.133 [-]
	Block[ 3] -624.885 [-]
	Block[ 4] -626.751 [-]
	------------------------------------------------------------------------------
	[CO2] Average Widom excess chemical potential:   -626.72 +/- 1.319580 [-]

Average Gibbs Widom Rosenbluth factor:
======================================
	Block[ 0] 0 [-]
	Block[ 1] 0 [-]
	Block[ 2] 0 [-]
	Block[ 3] 0 [-]
	Block[ 4] 0 [-]
	------------------------------------------------------------------------------
	[CO2] Average Gibbs Widom Rosenbluth-weight:   0 +/- 0.000000 [-]

Average Gibbs Widom chemical potential:
=======================================
	Block[ 0] 0 [-]
	Block[ 1] 0 [-]
	Block[ 2] 0 [-]
	Block[ 3] 0 [-]
	Block[ 4] 0 [-]
	------------------------------------------------------------------------------
	[CO2] Average Gibbs chemical potential:   0 +/- 0.000000 [K]

Average osmostat calibration for alchemical transformation:
=======================================
	Block[ 0] 0 [-]
	Block[ 1] 0 [-]
	Block[ 2] 0 [-]
	Block[ 3] 0 [-]
	Block[ 4] 0 [-]
	------------------------------------------------------------------------------
	Average osmostat calibration for alchemical transformation:   0 +/- 0.000000 [K]
	Average osmostat calibration for alchemical transformation:   0 +/- 0.000000 [kJ/mol]

Average Gibbs Widom Ideal-gas contribution:
===========================================
	Block[ 0] 0 [-]
	Block[ 1] 0 [-]
	Block[ 2] 0 [-]
	Block[ 3] 0 [-]
	Block[ 4] 0 [-]
	------------------------------------------------------------------------------
	[CO2] Average Gibbs Ideal-gas chemical potential:   0 +/- 0.000000 [-]

Average Gibbs Widom excess contribution:
===========================================
	Block[ 0] 0 [-]
	Block[ 1] 0 [-]
	Block[ 2] 0 [-]
	Block[ 3] 0 [-]
	Block[ 4] 0 [-]
	------------------------------------------------------------------------------
	[CO2] Average Gibbs excess chemical potential:   0 +/- 0.000000 [-]

Average Henry coefficient:
==========================
	Block[ 0] 1.74561e-06 [mol/kg/Pa]
	Block[ 1] 1.74661e-06 [mol/kg/Pa]
	Block[ 2] 1.74446e-06 [mol/kg/Pa]
	Block[ 3] 1.73135e-06 [mol/kg/Pa]
	Block[ 4] 1.74222e-06 [mol/kg/Pa]
	------------------------------------------------------------------------------
	[CO2] Average Henry coefficient:  1.74205e-06 +/- 7.69852e-09 [mol/kg/Pa]

Average adsorption energy <U_gh>_1-<U_h>_0 obtained from Widom-insertion:
(Note: the total heat of adsorption is dH=<U_gh>_1-<U_h>_0 - <U_g> - RT)
=========================================================================
	Block[ 0] -1564.9984563898   [K]
	Block[ 1] -1564.9648604738   [K]
	Block[ 2] -1561.6110587642   [K]
	Block[ 3] -1562.1102579904   [K]
	Block[ 4] -1563.8795945838   [K]
	------------------------------------------------------------------------------
	[CO2] Average  <U_gh>_1-<U_h>_0:    -1563.5128456404 +/-       1.9662563596 [K]       (    -12.9997727055 +/-       0.0163483695 kJ/mol)

Simulation finished,  0 warnings


Thu Aug 29 03:56:58 2024
Simulation finished on Thursday, August 29.
The end time was 03:56 AM.

