Compiler and run-time data
===========================================================================
RASPA 2.0.50
Compiled as a 64-bits application
Compiler: gcc 13.2.0
Compile Date = Aug 27 2024, Compile Time = 15:51:33

Wed Aug 28 22:07:49 2024
Simulation started on Wednesday, August 28.
The start time was 10:07 PM.

Hostname:    dydtkddhkdwk-VMware-Virtual-Platform
OS type:     Linux on x86_64
OS release:  6.8.0-41-generic
OS version:  #41-Ubuntu SMP PREEMPT_DYNAMIC Fri Aug  2 20:41:06 UTC 2024

Simulation
===========================================================================
Dimensions: 3
Random number seed: 1724850469
RASPA directory set to: /home/dydtkddhkdwk/Research/simulations/
String appended to output-files: 
Number of cycles: 20000
Number of initializing cycles: 0
Number of equilibration cycles: 0
Print every: 1000
Triclinic boundary condition applied
Timestep: 0.000500
	Degrees of freedom:                        0
	Translational Degrees of freedom:          0
	Rotational Degrees of freedom:             0
	Degrees of freedom Framework:              0


Mutual consistent basic set of units:
======================================
Unit of temperature: Kelvin
Unit of length:      1e-10 [m]
Unit of time:        1e-12 [s]
Unit of mass:        1.66054e-27 [kg]
Unit of charge:      1.60218e-19 [C/particle]

Derived units and their conversion factors:
===========================================
Unit of energy:              1.66054e-23 [J]
Unit of force:               1.66054e-13 [N]
Unit of pressure:            1.66054e+07 [Pa]
Unit of velocity:            100 [m/s]
Unit of acceleration:        1e-08 [m^2/s]
Unit of diffusion:           1e-08 [m^2/s]
Unit of dipole moment:       1.60218e-29 [C.m]
Unit of electric potential:  0.000103643 [V]
Unit of electric field:      1.03643e+06 [V]
Unit of polarizability:      1.54587e-35 [-]
Unit of Coulomb potential:   167101.0800066561  [K]
Unit of dielectric constant: 0.0000154587       [s^2 C^2/(kg m^3)]
Unit of wave vectors:        5.3088374589       [cm^1]
Boltzmann constant:          0.8314464919       [-]

Internal conversion factors:
===========================================
Energy to Kelvin:                                    1.2027242847
FH correction factor                                 2.0211930949
Heat capacity conversion factor:                    10.0000088723
From Debye to internal units:                        4.8032067991
Isothermal compressibility conversion factor:        0.0000000602

Energy conversion factors:
===========================================
From mdyne/A to kcal/mol/A^2:           143.933
From mdyne/A to kj/mol/A^2:             602.214
From mdyne/A to K/A^2:                  72429.7
From mdyne A/rad^2 to kcal/mol/deg^2:   0.0438444


Properties computed
===========================================================================
Movies: no
Radial Distribution Function: no
Number of molecules GCMC histogram: no
Histogram of the molecule positions: no
Free energy profiles: no
Pore Size Distribution Function: no
End-to-end distance: no
Histogram of the energy of the system: no
Compute thermodynamic factors: no
Framework spacing histograms: no
Residence times histograms: no
Distance histograms: no
Bend Angle histograms: no
Dihedral angle histograms: no
Angle between planes histograms: no
Molecule properties: no
Infra-red spectra: no
Mean-squared displacement using modified order-N algorithm: no
Velocity-autocorrelation function modified order-N algorithm: no
Rotational velocity-autocorrelation function modified order-N algorithm: no
Molecular orientation-autocorrelation function modified order-N algorithm: no
Bond orientation-autocorrelation function modified order-N algorithm: no
Mean-squared displacement (conventional algorithm): no
Velocity-autocorrelation function (conventional algorithm): no
3D density grid for adsorbates: no
Compute cation an/or adsorption sites: no
dcTST snapshots: no
Compute pressure and stress: no


VTK
===========================================================================
VTK fractional-range position framework atoms: [-0.001000,1.001000] [-0.001000,1.001000] [-0.001000,1.001000]
VTK fractional-range position framework bonds: [-0.151000,1.151000] [-0.151000,1.151000] [-0.151000,1.151000]
VTK fractional-range com-position adsorbate molecules: [-0.101000,1.101000] [-0.101000,1.101000] [-0.101000,1.101000]
VTK fractional-range com-position cation molecules: [-0.101000,1.101000] [-0.101000,1.101000] [-0.101000,1.101000]
	3D free energy grid made for the full simulation-cell


Thermo/Baro-stat NHC parameters
===========================================================================
External temperature: 298 [K]
Beta: 0.00403598 [energy unit]
External Pressure: 0 [Pa]


Thermostat chain-length: 3
Timescale parameter for thermostat: 0.150000 [ps]
Barostat chain-length:   3
Timescale parameter for barostat:   0.150000 [ps]

Number of Yoshida-Suzuki decomposition steps: 5
Number of respa steps: 5


Method and settings for electrostatics
===============================================================================
Dielectric constant of the medium : 1.000000
Charge from charge-equilibration: no
Ewald summation is used (exact solution of a periodic system)
Relative precision                : 1e-06
Alpha convergence parameter       : 0.265058
kvec (x,y,z)                      : 8 8 9


CFC-RXMC parameters
===========================================================================
Number of reactions: 0


Rattle parameters
===========================================================================
Distance constraint type: r^2-r^2_0
Bend angle constraint type: theta-theta_0
Dihedral angle constraint type: phi-phi_0
Inversion-bend angle constraint type: chi-chi_0
Out-of-plane distance constraint type: r-r_0


Spectra parameters
===========================================================================
Compute normal modes: no


Minimization parameters
===========================================================================
Generalized coordinates are: Cartesian center-of-mass, elements of the orientational matrix p1,p2,p3 and strain
Potential derivatives are evaluated: analytically
Translation of the system is removed from the generalized Hessian: no
Rotation of the system is removed from the generalized Hessian: no
Maximum step-length: 0.3
Convergence factor: 1
Maximum number of minimization steps: 10000
Use gradients in the line-minimizations: yes
RMS gradient tolerance: 1e-06
Maximum gradient tolerance: 1e-06

Distance constraints: 0
Angle constraints: 0
Dihedral constraints: 0

Improper dihedral constraints: 0

Inversion-bend constraints: 0

Out-of-plane constraints: 0

Harmonic distance constraints: 0
Harmonic angle constraints: 0
Harmonic dihedral constraints: 0

Dihedral mid-point measurements: 0

All framework atoms are fixed

Fixed adsorbate atoms:  
Fixed adsorbate groups (center-of-mass):  
Fixed adsorbate groups (orientation):  

Fixed cation atoms:  
Fixed cation groups (center-of-mass):  
Fixed cation groups (orientation):  


dcTST parameters
===========================================================================
Free energy profiles computed: no
Free energy profiles written every 5000 cycles
Free energy mapping: mapped to a,b,c-coordinates
BarrierPosition:       0.0000000000       0.0000000000       0.0000000000
BarrierNormal:         0.0000000000       0.0000000000       0.0000000000
Start with a molecule on top of the barrier: no
Maximum distance to barrier (e.g. distance to minumum free energy):       0.0000000000 [A]
Maximum trajectory time:      10.0000000000 [ps]
Each configuration is used with 5 different initial velocities


Cbmc parameters
===========================================================================
Biasing method: using only the VDW part
Number of trial positions:                                       10
Number of trial positions (reinsertion):                         10
Number of trial positions (partial reinsertion):                 10
Number of trial positions (identity-change):                     10
Number of trial positions (Gibbs particle transfer):             10
Number of trial positions (insertion/deletion):                  10
Number of trial positions (Widom insertion):                     10
Number of trial positions coupled Torsion-selection:             100
Number of trial positions first bead:                            10
Number of trial positions first bead (reinsertion):              10
Number of trial positions first bead (partial reinsertion):      10
Number of trial positions first bead (identity-change):          10
Number of trial positions first bead (Gibbs particle transfer):  10
Number of trial positions first bead (insertion/deletion):       10
Number of trial positions first bead (Widom insertion):          10
Number of trial moves per open bead:                             150
Target acceptance ratio small-mc scheme:                         0.400000
Energy overlap criteria:                                         1e+07
Minimal Rosenbluth factor:                                       1e-150


Pseudo atoms: 51
===========================================================================
Pseudo Atom[   0] Name UNIT     Oxidation:          Element: H    pdb-name: H    Scat. Types:   1   1 Mass=1.000000000  B-factor:0.000   
                 Charge=1.000000000          Polarization=0.000000000  [A^3] (considered a charged atom and no polarization)  Interactions: yes
                 Anisotropic factor:    0.000 [-] (Absolute), Radius:    1.000 [A], Framework-atom:  no
Pseudo Atom[   1] Name He       Oxidation: +0       Element: He   pdb-name: He   Scat. Types:   3   2 Mass=4.002602000  B-factor:1.000   
                 Charge=0.000000000          Polarization=0.000000000  [A^3] (considered a chargeless atom and no polarization)  Interactions: yes
                 Anisotropic factor:    0.000 [-] (Relative), Radius:    1.000 [A], Framework-atom:  no
Pseudo Atom[   2] Name C_co2    Oxidation: +0       Element: C    pdb-name: C    Scat. Types:   7   6 Mass=12.000000000 B-factor:1.000   
                 Charge=0.651200000          Polarization=0.000000000  [A^3] (considered a charged atom and no polarization)  Interactions: yes
                 Anisotropic factor:    0.000 [-] (Relative), Radius:    0.720 [A], Framework-atom:  no
Pseudo Atom[   3] Name O_co2    Oxidation: +0       Element: O    pdb-name: O    Scat. Types:   9   8 Mass=15.999400000 B-factor:1.000   
                 Charge=-0.325600000         Polarization=0.000000000  [A^3] (considered a charged atom and no polarization)  Interactions: yes
                 Anisotropic factor:    0.000 [-] (Relative), Radius:    0.680 [A], Framework-atom:  no
Pseudo Atom[   4] Name O_o2     Oxidation: +0       Element: O    pdb-name: O    Scat. Types:   9   8 Mass=15.999400000 B-factor:1.000   
                 Charge=-0.112000000         Polarization=0.000000000  [A^3] (considered a charged atom and no polarization)  Interactions: yes
                 Anisotropic factor:    0.000 [-] (Relative), Radius:    0.700 [A], Framework-atom:  no
Pseudo Atom[   5] Name O_com    Oxidation: +0       Element: -    pdb-name: O    Scat. Types:   0   8 Mass=0.000000000  B-factor:1.000   
                 Charge=0.224000000          Polarization=0.000000000  [A^3] (considered a charged atom and no polarization)  Interactions: yes
                 Anisotropic factor:    0.000 [-] (Relative), Radius:    0.700 [A], Framework-atom:  no
Pseudo Atom[   6] Name N_n2     Oxidation: +0       Element: N    pdb-name: N    Scat. Types:   8   7 Mass=14.006740000 B-factor:1.000   
                 Charge=-0.405000000         Polarization=0.000000000  [A^3] (considered a charged atom and no polarization)  Interactions: yes
                 Anisotropic factor:    0.000 [-] (Relative), Radius:    0.700 [A], Framework-atom:  no
Pseudo Atom[   7] Name N_com    Oxidation: +0       Element: -    pdb-name: N    Scat. Types:   0   7 Mass=0.000000000  B-factor:1.000   
                 Charge=0.810000000          Polarization=0.000000000  [A^3] (considered a charged atom and no polarization)  Interactions: yes
                 Anisotropic factor:    0.000 [-] (Relative), Radius:    0.700 [A], Framework-atom:  no
Pseudo Atom[   8] Name Ar       Oxidation: +0       Element: Ar   pdb-name: Ar   Scat. Types:  19  18 Mass=39.948000000 B-factor:1.000   
                 Charge=0.000000000          Polarization=0.000000000  [A^3] (considered a chargeless atom and no polarization)  Interactions: yes
                 Anisotropic factor:    0.000 [-] (Relative), Radius:    0.700 [A], Framework-atom:  no
Pseudo Atom[   9] Name CH4      Oxidation: +0       Element: C    pdb-name: C    Scat. Types:   7   6 Mass=16.042460000 B-factor:1.000   
                 Charge=0.000000000          Polarization=0.000000000  [A^3] (considered a chargeless atom and no polarization)  Interactions: yes
                 Anisotropic factor:    0.000 [-] (Relative), Radius:    1.000 [A], Framework-atom:  no
Pseudo Atom[  10] Name CH3      Oxidation: +0       Element: C    pdb-name: C    Scat. Types:   7   6 Mass=15.034520000 B-factor:1.000   
                 Charge=0.000000000          Polarization=0.000000000  [A^3] (considered a chargeless atom and no polarization)  Interactions: yes
                 Anisotropic factor:    0.000 [-] (Relative), Radius:    1.000 [A], Framework-atom:  no
Pseudo Atom[  11] Name CH2      Oxidation: +0       Element: C    pdb-name: C    Scat. Types:   7   6 Mass=14.026580000 B-factor:1.000   
                 Charge=0.000000000          Polarization=0.000000000  [A^3] (considered a chargeless atom and no polarization)  Interactions: yes
                 Anisotropic factor:    0.000 [-] (Relative), Radius:    1.000 [A], Framework-atom:  no
Pseudo Atom[  12] Name CH       Oxidation: +0       Element: C    pdb-name: C    Scat. Types:   7   6 Mass=13.018640000 B-factor:1.000   
                 Charge=0.000000000          Polarization=0.000000000  [A^3] (considered a chargeless atom and no polarization)  Interactions: yes
                 Anisotropic factor:    0.000 [-] (Relative), Radius:    1.000 [A], Framework-atom:  no
Pseudo Atom[  13] Name C        Oxidation: +0       Element: C    pdb-name: C    Scat. Types:   7   6 Mass=12.000000000 B-factor:1.000   
                 Charge=0.000000000          Polarization=0.000000000  [A^3] (considered a chargeless atom and no polarization)  Interactions: yes
                 Anisotropic factor:    0.000 [-] (Relative), Radius:    1.000 [A], Framework-atom:  no
Pseudo Atom[  14] Name Hw       Oxidation: +0       Element: H    pdb-name: H    Scat. Types:   1   1 Mass=1.008000000  B-factor:1.000   
                 Charge=0.556400000          Polarization=0.000000000  [A^3] (considered a charged atom and no polarization)  Interactions: yes
                 Anisotropic factor:    0.000 [-] (Relative), Radius:    0.700 [A], Framework-atom:  no
Pseudo Atom[  15] Name Ow       Oxidation: +0       Element: O    pdb-name: O    Scat. Types:   9   8 Mass=15.999400000 B-factor:1.000   
                 Charge=0.000000000          Polarization=0.000000000  [A^3] (considered a chargeless atom and no polarization)  Interactions: yes
                 Anisotropic factor:    0.000 [-] (Relative), Radius:    0.680 [A], Framework-atom:  no
Pseudo Atom[  16] Name Mw       Oxidation: +0       Element: -    pdb-name: M    Scat. Types:   0  12 Mass=0.000000000  B-factor:1.000   
                 Charge=-1.112800000         Polarization=0.000000000  [A^3] (considered a charged atom and no polarization)  Interactions:  no
                 Anisotropic factor:    0.000 [-] (Relative), Radius:    0.700 [A], Framework-atom:  no
Pseudo Atom[  17] Name Cu1      Oxidation:          Element: Cu   pdb-name: Cu   Scat. Types:  30  29 Mass=63.546039732 B-factor:0.000   
                 Charge=0.000000000  (-na-)  Polarization=6.200000000  [A^3] (considered a chargeless atom and no polarization)  Interactions: yes
                 Anisotropic factor:    0.000 [-] (Absolute), Radius:    1.220 [A], Framework-atom: yes (charge definition not found)
Pseudo Atom[  18] Name Cu2      Oxidation:          Element: Cu   pdb-name: Cu   Scat. Types:  30  29 Mass=63.546039732 B-factor:0.000   
                 Charge=0.000000000  (-na-)  Polarization=6.200000000  [A^3] (considered a chargeless atom and no polarization)  Interactions: yes
                 Anisotropic factor:    0.000 [-] (Absolute), Radius:    1.220 [A], Framework-atom: yes (charge definition not found)
Pseudo Atom[  19] Name Cu3      Oxidation:          Element: Cu   pdb-name: Cu   Scat. Types:  30  29 Mass=63.546039732 B-factor:0.000   
                 Charge=0.000000000  (-na-)  Polarization=6.200000000  [A^3] (considered a chargeless atom and no polarization)  Interactions: yes
                 Anisotropic factor:    0.000 [-] (Absolute), Radius:    1.220 [A], Framework-atom: yes (charge definition not found)
Pseudo Atom[  20] Name Cu4      Oxidation:          Element: Cu   pdb-name: Cu   Scat. Types:  30  29 Mass=63.546039732 B-factor:0.000   
                 Charge=0.000000000  (-na-)  Polarization=6.200000000  [A^3] (considered a chargeless atom and no polarization)  Interactions: yes
                 Anisotropic factor:    0.000 [-] (Absolute), Radius:    1.220 [A], Framework-atom: yes (charge definition not found)
Pseudo Atom[  21] Name Cu5      Oxidation:          Element: Cu   pdb-name: Cu   Scat. Types:  30  29 Mass=63.546039732 B-factor:0.000   
                 Charge=0.000000000  (-na-)  Polarization=6.200000000  [A^3] (considered a chargeless atom and no polarization)  Interactions: yes
                 Anisotropic factor:    0.000 [-] (Absolute), Radius:    1.220 [A], Framework-atom: yes (charge definition not found)
Pseudo Atom[  22] Name Cu6      Oxidation:          Element: Cu   pdb-name: Cu   Scat. Types:  30  29 Mass=63.546039732 B-factor:0.000   
                 Charge=0.000000000  (-na-)  Polarization=6.200000000  [A^3] (considered a chargeless atom and no polarization)  Interactions: yes
                 Anisotropic factor:    0.000 [-] (Absolute), Radius:    1.220 [A], Framework-atom: yes (charge definition not found)
Pseudo Atom[  23] Name Cu7      Oxidation:          Element: Cu   pdb-name: Cu   Scat. Types:  30  29 Mass=63.546039732 B-factor:0.000   
                 Charge=0.000000000  (-na-)  Polarization=6.200000000  [A^3] (considered a chargeless atom and no polarization)  Interactions: yes
                 Anisotropic factor:    0.000 [-] (Absolute), Radius:    1.220 [A], Framework-atom: yes (charge definition not found)
Pseudo Atom[  24] Name Cu8      Oxidation:          Element: Cu   pdb-name: Cu   Scat. Types:  30  29 Mass=63.546039732 B-factor:0.000   
                 Charge=0.000000000  (-na-)  Polarization=6.200000000  [A^3] (considered a chargeless atom and no polarization)  Interactions: yes
                 Anisotropic factor:    0.000 [-] (Absolute), Radius:    1.220 [A], Framework-atom: yes (charge definition not found)
Pseudo Atom[  25] Name Cu9      Oxidation:          Element: Cu   pdb-name: Cu   Scat. Types:  30  29 Mass=63.546039732 B-factor:0.000   
                 Charge=0.000000000  (-na-)  Polarization=6.200000000  [A^3] (considered a chargeless atom and no polarization)  Interactions: yes
                 Anisotropic factor:    0.000 [-] (Absolute), Radius:    1.220 [A], Framework-atom: yes (charge definition not found)
Pseudo Atom[  26] Name Cu10     Oxidation:          Element: Cu   pdb-name: Cu   Scat. Types:  30  29 Mass=63.546039732 B-factor:0.000   
                 Charge=0.000000000  (-na-)  Polarization=6.200000000  [A^3] (considered a chargeless atom and no polarization)  Interactions: yes
                 Anisotropic factor:    0.000 [-] (Absolute), Radius:    1.220 [A], Framework-atom: yes (charge definition not found)
Pseudo Atom[  27] Name C1       Oxidation:          Element: C    pdb-name: C    Scat. Types:   7   6 Mass=12.010735897 B-factor:0.000   
                 Charge=0.000000000  (-na-)  Polarization=1.760000000  [A^3] (considered a chargeless atom and no polarization)  Interactions: yes
                 Anisotropic factor:    0.000 [-] (Absolute), Radius:    0.750 [A], Framework-atom: yes (charge definition not found)
Pseudo Atom[  28] Name C2       Oxidation:          Element: C    pdb-name: C    Scat. Types:   7   6 Mass=12.010735897 B-factor:0.000   
                 Charge=0.000000000  (-na-)  Polarization=1.760000000  [A^3] (considered a chargeless atom and no polarization)  Interactions: yes
                 Anisotropic factor:    0.000 [-] (Absolute), Radius:    0.750 [A], Framework-atom: yes (charge definition not found)
Pseudo Atom[  29] Name C3       Oxidation:          Element: C    pdb-name: C    Scat. Types:   7   6 Mass=12.010735897 B-factor:0.000   
                 Charge=0.000000000  (-na-)  Polarization=1.760000000  [A^3] (considered a chargeless atom and no polarization)  Interactions: yes
                 Anisotropic factor:    0.000 [-] (Absolute), Radius:    0.750 [A], Framework-atom: yes (charge definition not found)
Pseudo Atom[  30] Name C4       Oxidation:          Element: C    pdb-name: C    Scat. Types:   7   6 Mass=12.010735897 B-factor:0.000   
                 Charge=0.000000000  (-na-)  Polarization=1.760000000  [A^3] (considered a chargeless atom and no polarization)  Interactions: yes
                 Anisotropic factor:    0.000 [-] (Absolute), Radius:    0.750 [A], Framework-atom: yes (charge definition not found)
Pseudo Atom[  31] Name C5       Oxidation:          Element: C    pdb-name: C    Scat. Types:   7   6 Mass=12.010735897 B-factor:0.000   
                 Charge=0.000000000  (-na-)  Polarization=1.760000000  [A^3] (considered a chargeless atom and no polarization)  Interactions: yes
                 Anisotropic factor:    0.000 [-] (Absolute), Radius:    0.750 [A], Framework-atom: yes (charge definition not found)
Pseudo Atom[  32] Name C6       Oxidation:          Element: C    pdb-name: C    Scat. Types:   7   6 Mass=12.010735897 B-factor:0.000   
                 Charge=0.000000000  (-na-)  Polarization=1.760000000  [A^3] (considered a chargeless atom and no polarization)  Interactions: yes
                 Anisotropic factor:    0.000 [-] (Absolute), Radius:    0.750 [A], Framework-atom: yes (charge definition not found)
Pseudo Atom[  33] Name C7       Oxidation:          Element: C    pdb-name: C    Scat. Types:   7   6 Mass=12.010735897 B-factor:0.000   
                 Charge=0.000000000  (-na-)  Polarization=1.760000000  [A^3] (considered a chargeless atom and no polarization)  Interactions: yes
                 Anisotropic factor:    0.000 [-] (Absolute), Radius:    0.750 [A], Framework-atom: yes (charge definition not found)
Pseudo Atom[  34] Name C8       Oxidation:          Element: C    pdb-name: C    Scat. Types:   7   6 Mass=12.010735897 B-factor:0.000   
                 Charge=0.000000000  (-na-)  Polarization=1.760000000  [A^3] (considered a chargeless atom and no polarization)  Interactions: yes
                 Anisotropic factor:    0.000 [-] (Absolute), Radius:    0.750 [A], Framework-atom: yes (charge definition not found)
Pseudo Atom[  35] Name C9       Oxidation:          Element: C    pdb-name: C    Scat. Types:   7   6 Mass=12.010735897 B-factor:0.000   
                 Charge=0.000000000  (-na-)  Polarization=1.760000000  [A^3] (considered a chargeless atom and no polarization)  Interactions: yes
                 Anisotropic factor:    0.000 [-] (Absolute), Radius:    0.750 [A], Framework-atom: yes (charge definition not found)
Pseudo Atom[  36] Name C10      Oxidation:          Element: C    pdb-name: C    Scat. Types:   7   6 Mass=12.010735897 B-factor:0.000   
                 Charge=0.000000000  (-na-)  Polarization=1.760000000  [A^3] (considered a chargeless atom and no polarization)  Interactions: yes
                 Anisotropic factor:    0.000 [-] (Absolute), Radius:    0.750 [A], Framework-atom: yes (charge definition not found)
Pseudo Atom[  37] Name C11      Oxidation:          Element: C    pdb-name: C    Scat. Types:   7   6 Mass=12.010735897 B-factor:0.000   
                 Charge=0.000000000  (-na-)  Polarization=1.760000000  [A^3] (considered a chargeless atom and no polarization)  Interactions: yes
                 Anisotropic factor:    0.000 [-] (Absolute), Radius:    0.750 [A], Framework-atom: yes (charge definition not found)
Pseudo Atom[  38] Name C12      Oxidation:          Element: C    pdb-name: C    Scat. Types:   7   6 Mass=12.010735897 B-factor:0.000   
                 Charge=0.000000000  (-na-)  Polarization=1.760000000  [A^3] (considered a chargeless atom and no polarization)  Interactions: yes
                 Anisotropic factor:    0.000 [-] (Absolute), Radius:    0.750 [A], Framework-atom: yes (charge definition not found)
Pseudo Atom[  39] Name N1       Oxidation:          Element: N    pdb-name: N    Scat. Types:   8   7 Mass=14.006703212 B-factor:0.000   
                 Charge=0.000000000  (-na-)  Polarization=1.100000000  [A^3] (considered a chargeless atom and no polarization)  Interactions: yes
                 Anisotropic factor:    0.000 [-] (Absolute), Radius:    0.710 [A], Framework-atom: yes (charge definition not found)
Pseudo Atom[  40] Name N2       Oxidation:          Element: N    pdb-name: N    Scat. Types:   8   7 Mass=14.006703212 B-factor:0.000   
                 Charge=0.000000000  (-na-)  Polarization=1.100000000  [A^3] (considered a chargeless atom and no polarization)  Interactions: yes
                 Anisotropic factor:    0.000 [-] (Absolute), Radius:    0.710 [A], Framework-atom: yes (charge definition not found)
Pseudo Atom[  41] Name N3       Oxidation:          Element: N    pdb-name: N    Scat. Types:   8   7 Mass=14.006703212 B-factor:0.000   
                 Charge=0.000000000  (-na-)  Polarization=1.100000000  [A^3] (considered a chargeless atom and no polarization)  Interactions: yes
                 Anisotropic factor:    0.000 [-] (Absolute), Radius:    0.710 [A], Framework-atom: yes (charge definition not found)
Pseudo Atom[  42] Name N4       Oxidation:          Element: N    pdb-name: N    Scat. Types:   8   7 Mass=14.006703212 B-factor:0.000   
                 Charge=0.000000000  (-na-)  Polarization=1.100000000  [A^3] (considered a chargeless atom and no polarization)  Interactions: yes
                 Anisotropic factor:    0.000 [-] (Absolute), Radius:    0.710 [A], Framework-atom: yes (charge definition not found)
Pseudo Atom[  43] Name N5       Oxidation:          Element: N    pdb-name: N    Scat. Types:   8   7 Mass=14.006703212 B-factor:0.000   
                 Charge=0.000000000  (-na-)  Polarization=1.100000000  [A^3] (considered a chargeless atom and no polarization)  Interactions: yes
                 Anisotropic factor:    0.000 [-] (Absolute), Radius:    0.710 [A], Framework-atom: yes (charge definition not found)
Pseudo Atom[  44] Name N6       Oxidation:          Element: N    pdb-name: N    Scat. Types:   8   7 Mass=14.006703212 B-factor:0.000   
                 Charge=0.000000000  (-na-)  Polarization=1.100000000  [A^3] (considered a chargeless atom and no polarization)  Interactions: yes
                 Anisotropic factor:    0.000 [-] (Absolute), Radius:    0.710 [A], Framework-atom: yes (charge definition not found)
Pseudo Atom[  45] Name N7       Oxidation:          Element: N    pdb-name: N    Scat. Types:   8   7 Mass=14.006703212 B-factor:0.000   
                 Charge=0.000000000  (-na-)  Polarization=1.100000000  [A^3] (considered a chargeless atom and no polarization)  Interactions: yes
                 Anisotropic factor:    0.000 [-] (Absolute), Radius:    0.710 [A], Framework-atom: yes (charge definition not found)
Pseudo Atom[  46] Name N8       Oxidation:          Element: N    pdb-name: N    Scat. Types:   8   7 Mass=14.006703212 B-factor:0.000   
                 Charge=0.000000000  (-na-)  Polarization=1.100000000  [A^3] (considered a chargeless atom and no polarization)  Interactions: yes
                 Anisotropic factor:    0.000 [-] (Absolute), Radius:    0.710 [A], Framework-atom: yes (charge definition not found)
Pseudo Atom[  47] Name N9       Oxidation:          Element: N    pdb-name: N    Scat. Types:   8   7 Mass=14.006703212 B-factor:0.000   
                 Charge=0.000000000  (-na-)  Polarization=1.100000000  [A^3] (considered a chargeless atom and no polarization)  Interactions: yes
                 Anisotropic factor:    0.000 [-] (Absolute), Radius:    0.710 [A], Framework-atom: yes (charge definition not found)
Pseudo Atom[  48] Name N10      Oxidation:          Element: N    pdb-name: N    Scat. Types:   8   7 Mass=14.006703212 B-factor:0.000   
                 Charge=0.000000000  (-na-)  Polarization=1.100000000  [A^3] (considered a chargeless atom and no polarization)  Interactions: yes
                 Anisotropic factor:    0.000 [-] (Absolute), Radius:    0.710 [A], Framework-atom: yes (charge definition not found)
Pseudo Atom[  49] Name N11      Oxidation:          Element: N    pdb-name: N    Scat. Types:   8   7 Mass=14.006703212 B-factor:0.000   
                 Charge=0.000000000  (-na-)  Polarization=1.100000000  [A^3] (considered a chargeless atom and no polarization)  Interactions: yes
                 Anisotropic factor:    0.000 [-] (Absolute), Radius:    0.710 [A], Framework-atom: yes (charge definition not found)
Pseudo Atom[  50] Name N12      Oxidation:          Element: N    pdb-name: N    Scat. Types:   8   7 Mass=14.006703212 B-factor:0.000   
                 Charge=0.000000000  (-na-)  Polarization=1.100000000  [A^3] (considered a chargeless atom and no polarization)  Interactions: yes
                 Anisotropic factor:    0.000 [-] (Absolute), Radius:    0.710 [A], Framework-atom: yes (charge definition not found)


Forcefield: Henry_Ref_ForceField
===========================================================================
Minimal distance: 1
CutOff VDW : 12.000000 (144.000000)
CutOff VDW switching on: 10.800000 (116.640000)
CutOff charge-charge : 12.000000 (144.000000)
CutOff charge-charge switching on: 7.800000 (60.840000)
CutOff charge-bonddipole : 12.000000 (144.000000)
CutOff charge-bondipole switching on: 8.400000 (70.560000)
CutOff bonddipole-bonddipole : 12.000000 (144.000000)
CutOff bonddipole-bondipole switching on: 9.000000 (81.000000)
Polarization is neglected
All potentials are shifted to zero at the Cutoff

General mixing rule: Lorentz-Berthelot mixing rules are used FIRST for cross terms
0 cross terms are overwritten using the individual mixing rules from the file 'force_field_mixing_rules.def'
and then 0 terms are overwritten using the specific interactions from the file 'force_field.def'

The force field and all the interactions:
     He -      He [LENNARD_JONES] p_0/k_B:  28.18320 [K], p_1: 2.10430 [A], shift/k_B:  -0.00327790 [K], tailcorrection: no
     He -   C_co2 [LENNARD_JONES] p_0/k_B:  29.04493 [K], p_1: 2.42465 [A], shift/k_B:  -0.00790510 [K], tailcorrection: no
     He -   O_co2 [LENNARD_JONES] p_0/k_B:  49.13739 [K], p_1: 2.56065 [A], shift/k_B:  -0.01855431 [K], tailcorrection: no
     He -    O_o2 [LENNARD_JONES] p_0/k_B:  29.17239 [K], p_1: 2.61120 [A], shift/k_B:  -0.01238623 [K], tailcorrection: no
     He -   O_com [LENNARD_JONES] p_0/k_B:  29.17239 [K], p_1: 2.61120 [A], shift/k_B:  -0.01238623 [K], tailcorrection: no
     He -    N_n2 [LENNARD_JONES] p_0/k_B:  31.28388 [K], p_1: 2.68250 [A], shift/k_B:  -0.01561268 [K], tailcorrection: no
     He -   N_com [LENNARD_JONES] p_0/k_B:  31.28388 [K], p_1: 2.68250 [A], shift/k_B:  -0.01561268 [K], tailcorrection: no
     He -      Ar [LENNARD_JONES] p_0/k_B:  51.22502 [K], p_1: 2.77515 [A], shift/k_B:  -0.03134058 [K], tailcorrection: no
     He -     CH4 [LENNARD_JONES] p_0/k_B:  38.59144 [K], p_1: 2.76760 [A], shift/k_B:  -0.02322833 [K], tailcorrection: no
     He -     CH3 [LENNARD_JONES] p_0/k_B:  38.59144 [K], p_1: 2.76760 [A], shift/k_B:  -0.02322833 [K], tailcorrection: no
     He -     CH2 [LENNARD_JONES] p_0/k_B:  38.59144 [K], p_1: 2.76760 [A], shift/k_B:  -0.02322833 [K], tailcorrection: no
     He -      CH [LENNARD_JONES] p_0/k_B:  38.59144 [K], p_1: 2.76760 [A], shift/k_B:  -0.02322833 [K], tailcorrection: no
     He -       C [LENNARD_JONES] p_0/k_B:  38.59144 [K], p_1: 2.76760 [A], shift/k_B:  -0.02322833 [K], tailcorrection: no
     He -      Hw [LENNARD_JONES] p_0/k_B:  24.98171 [K], p_1: 2.33770 [A], shift/k_B:  -0.00546140 [K], tailcorrection: no
     He -      Ow [LENNARD_JONES] p_0/k_B:  29.17239 [K], p_1: 2.61120 [A], shift/k_B:  -0.01238623 [K], tailcorrection: no
     He -     Cu1 [LENNARD_JONES] p_0/k_B:   8.42141 [K], p_1: 2.60900 [A], shift/k_B:  -0.00355759 [K], tailcorrection: no
     He -     Cu2 [LENNARD_JONES] p_0/k_B:   8.42141 [K], p_1: 2.60900 [A], shift/k_B:  -0.00355759 [K], tailcorrection: no
     He -     Cu3 [LENNARD_JONES] p_0/k_B:   8.42141 [K], p_1: 2.60900 [A], shift/k_B:  -0.00355759 [K], tailcorrection: no
     He -     Cu4 [LENNARD_JONES] p_0/k_B:   8.42141 [K], p_1: 2.60900 [A], shift/k_B:  -0.00355759 [K], tailcorrection: no
     He -     Cu5 [LENNARD_JONES] p_0/k_B:   8.42141 [K], p_1: 2.60900 [A], shift/k_B:  -0.00355759 [K], tailcorrection: no
     He -     Cu6 [LENNARD_JONES] p_0/k_B:   8.42141 [K], p_1: 2.60900 [A], shift/k_B:  -0.00355759 [K], tailcorrection: no
     He -     Cu7 [LENNARD_JONES] p_0/k_B:   8.42141 [K], p_1: 2.60900 [A], shift/k_B:  -0.00355759 [K], tailcorrection: no
     He -     Cu8 [LENNARD_JONES] p_0/k_B:   8.42141 [K], p_1: 2.60900 [A], shift/k_B:  -0.00355759 [K], tailcorrection: no
     He -     Cu9 [LENNARD_JONES] p_0/k_B:   8.42141 [K], p_1: 2.60900 [A], shift/k_B:  -0.00355759 [K], tailcorrection: no
     He -    Cu10 [LENNARD_JONES] p_0/k_B:   8.42141 [K], p_1: 2.60900 [A], shift/k_B:  -0.00355759 [K], tailcorrection: no
     He -      C1 [LENNARD_JONES] p_0/k_B:  38.59144 [K], p_1: 2.76760 [A], shift/k_B:  -0.02322833 [K], tailcorrection: no
     He -      C2 [LENNARD_JONES] p_0/k_B:  38.59144 [K], p_1: 2.76760 [A], shift/k_B:  -0.02322833 [K], tailcorrection: no
     He -      C3 [LENNARD_JONES] p_0/k_B:  38.59144 [K], p_1: 2.76760 [A], shift/k_B:  -0.02322833 [K], tailcorrection: no
     He -      C4 [LENNARD_JONES] p_0/k_B:  38.59144 [K], p_1: 2.76760 [A], shift/k_B:  -0.02322833 [K], tailcorrection: no
     He -      C5 [LENNARD_JONES] p_0/k_B:  38.59144 [K], p_1: 2.76760 [A], shift/k_B:  -0.02322833 [K], tailcorrection: no
     He -      C6 [LENNARD_JONES] p_0/k_B:  38.59144 [K], p_1: 2.76760 [A], shift/k_B:  -0.02322833 [K], tailcorrection: no
     He -      C7 [LENNARD_JONES] p_0/k_B:  38.59144 [K], p_1: 2.76760 [A], shift/k_B:  -0.02322833 [K], tailcorrection: no
     He -      C8 [LENNARD_JONES] p_0/k_B:  38.59144 [K], p_1: 2.76760 [A], shift/k_B:  -0.02322833 [K], tailcorrection: no
     He -      C9 [LENNARD_JONES] p_0/k_B:  38.59144 [K], p_1: 2.76760 [A], shift/k_B:  -0.02322833 [K], tailcorrection: no
     He -     C10 [LENNARD_JONES] p_0/k_B:  38.59144 [K], p_1: 2.76760 [A], shift/k_B:  -0.02322833 [K], tailcorrection: no
     He -     C11 [LENNARD_JONES] p_0/k_B:  38.59144 [K], p_1: 2.76760 [A], shift/k_B:  -0.02322833 [K], tailcorrection: no
     He -     C12 [LENNARD_JONES] p_0/k_B:  38.59144 [K], p_1: 2.76760 [A], shift/k_B:  -0.02322833 [K], tailcorrection: no
     He -      N1 [LENNARD_JONES] p_0/k_B:  31.28388 [K], p_1: 2.68250 [A], shift/k_B:  -0.01561268 [K], tailcorrection: no
     He -      N2 [LENNARD_JONES] p_0/k_B:  31.28388 [K], p_1: 2.68250 [A], shift/k_B:  -0.01561268 [K], tailcorrection: no
     He -      N3 [LENNARD_JONES] p_0/k_B:  31.28388 [K], p_1: 2.68250 [A], shift/k_B:  -0.01561268 [K], tailcorrection: no
     He -      N4 [LENNARD_JONES] p_0/k_B:  31.28388 [K], p_1: 2.68250 [A], shift/k_B:  -0.01561268 [K], tailcorrection: no
     He -      N5 [LENNARD_JONES] p_0/k_B:  31.28388 [K], p_1: 2.68250 [A], shift/k_B:  -0.01561268 [K], tailcorrection: no
     He -      N6 [LENNARD_JONES] p_0/k_B:  31.28388 [K], p_1: 2.68250 [A], shift/k_B:  -0.01561268 [K], tailcorrection: no
     He -      N7 [LENNARD_JONES] p_0/k_B:  31.28388 [K], p_1: 2.68250 [A], shift/k_B:  -0.01561268 [K], tailcorrection: no
     He -      N8 [LENNARD_JONES] p_0/k_B:  31.28388 [K], p_1: 2.68250 [A], shift/k_B:  -0.01561268 [K], tailcorrection: no
     He -      N9 [LENNARD_JONES] p_0/k_B:  31.28388 [K], p_1: 2.68250 [A], shift/k_B:  -0.01561268 [K], tailcorrection: no
     He -     N10 [LENNARD_JONES] p_0/k_B:  31.28388 [K], p_1: 2.68250 [A], shift/k_B:  -0.01561268 [K], tailcorrection: no
     He -     N11 [LENNARD_JONES] p_0/k_B:  31.28388 [K], p_1: 2.68250 [A], shift/k_B:  -0.01561268 [K], tailcorrection: no
     He -     N12 [LENNARD_JONES] p_0/k_B:  31.28388 [K], p_1: 2.68250 [A], shift/k_B:  -0.01561268 [K], tailcorrection: no
  C_co2 -   C_co2 [LENNARD_JONES] p_0/k_B:  29.93300 [K], p_1: 2.74500 [A], shift/k_B:  -0.01715199 [K], tailcorrection: no
  C_co2 -   O_co2 [LENNARD_JONES] p_0/k_B:  50.63981 [K], p_1: 2.88100 [A], shift/k_B:  -0.03878296 [K], tailcorrection: no
  C_co2 -    O_o2 [LENNARD_JONES] p_0/k_B:  30.06436 [K], p_1: 2.93155 [A], shift/k_B:  -0.02555736 [K], tailcorrection: no
  C_co2 -   O_com [LENNARD_JONES] p_0/k_B:  30.06436 [K], p_1: 2.93155 [A], shift/k_B:  -0.02555736 [K], tailcorrection: no
  C_co2 -    N_n2 [LENNARD_JONES] p_0/k_B:  32.24042 [K], p_1: 3.00285 [A], shift/k_B:  -0.03165690 [K], tailcorrection: no
  C_co2 -   N_com [LENNARD_JONES] p_0/k_B:  32.24042 [K], p_1: 3.00285 [A], shift/k_B:  -0.03165690 [K], tailcorrection: no
  C_co2 -      Ar [LENNARD_JONES] p_0/k_B:  52.79127 [K], p_1: 3.09550 [A], shift/k_B:  -0.06220016 [K], tailcorrection: no
  C_co2 -     CH4 [LENNARD_JONES] p_0/k_B:  39.77140 [K], p_1: 3.08795 [A], shift/k_B:  -0.04617840 [K], tailcorrection: no
  C_co2 -     CH3 [LENNARD_JONES] p_0/k_B:  39.77140 [K], p_1: 3.08795 [A], shift/k_B:  -0.04617840 [K], tailcorrection: no
  C_co2 -     CH2 [LENNARD_JONES] p_0/k_B:  39.77140 [K], p_1: 3.08795 [A], shift/k_B:  -0.04617840 [K], tailcorrection: no
  C_co2 -      CH [LENNARD_JONES] p_0/k_B:  39.77140 [K], p_1: 3.08795 [A], shift/k_B:  -0.04617840 [K], tailcorrection: no
  C_co2 -       C [LENNARD_JONES] p_0/k_B:  39.77140 [K], p_1: 3.08795 [A], shift/k_B:  -0.04617840 [K], tailcorrection: no
  C_co2 -      Hw [LENNARD_JONES] p_0/k_B:  25.74555 [K], p_1: 2.65805 [A], shift/k_B:  -0.01216192 [K], tailcorrection: no
  C_co2 -      Ow [LENNARD_JONES] p_0/k_B:  30.06436 [K], p_1: 2.93155 [A], shift/k_B:  -0.02555736 [K], tailcorrection: no
  C_co2 -     Cu1 [LENNARD_JONES] p_0/k_B:   8.67891 [K], p_1: 2.92935 [A], shift/k_B:  -0.00734468 [K], tailcorrection: no
  C_co2 -     Cu2 [LENNARD_JONES] p_0/k_B:   8.67891 [K], p_1: 2.92935 [A], shift/k_B:  -0.00734468 [K], tailcorrection: no
  C_co2 -     Cu3 [LENNARD_JONES] p_0/k_B:   8.67891 [K], p_1: 2.92935 [A], shift/k_B:  -0.00734468 [K], tailcorrection: no
  C_co2 -     Cu4 [LENNARD_JONES] p_0/k_B:   8.67891 [K], p_1: 2.92935 [A], shift/k_B:  -0.00734468 [K], tailcorrection: no
  C_co2 -     Cu5 [LENNARD_JONES] p_0/k_B:   8.67891 [K], p_1: 2.92935 [A], shift/k_B:  -0.00734468 [K], tailcorrection: no
  C_co2 -     Cu6 [LENNARD_JONES] p_0/k_B:   8.67891 [K], p_1: 2.92935 [A], shift/k_B:  -0.00734468 [K], tailcorrection: no
  C_co2 -     Cu7 [LENNARD_JONES] p_0/k_B:   8.67891 [K], p_1: 2.92935 [A], shift/k_B:  -0.00734468 [K], tailcorrection: no
  C_co2 -     Cu8 [LENNARD_JONES] p_0/k_B:   8.67891 [K], p_1: 2.92935 [A], shift/k_B:  -0.00734468 [K], tailcorrection: no
  C_co2 -     Cu9 [LENNARD_JONES] p_0/k_B:   8.67891 [K], p_1: 2.92935 [A], shift/k_B:  -0.00734468 [K], tailcorrection: no
  C_co2 -    Cu10 [LENNARD_JONES] p_0/k_B:   8.67891 [K], p_1: 2.92935 [A], shift/k_B:  -0.00734468 [K], tailcorrection: no
  C_co2 -      C1 [LENNARD_JONES] p_0/k_B:  39.77140 [K], p_1: 3.08795 [A], shift/k_B:  -0.04617840 [K], tailcorrection: no
  C_co2 -      C2 [LENNARD_JONES] p_0/k_B:  39.77140 [K], p_1: 3.08795 [A], shift/k_B:  -0.04617840 [K], tailcorrection: no
  C_co2 -      C3 [LENNARD_JONES] p_0/k_B:  39.77140 [K], p_1: 3.08795 [A], shift/k_B:  -0.04617840 [K], tailcorrection: no
  C_co2 -      C4 [LENNARD_JONES] p_0/k_B:  39.77140 [K], p_1: 3.08795 [A], shift/k_B:  -0.04617840 [K], tailcorrection: no
  C_co2 -      C5 [LENNARD_JONES] p_0/k_B:  39.77140 [K], p_1: 3.08795 [A], shift/k_B:  -0.04617840 [K], tailcorrection: no
  C_co2 -      C6 [LENNARD_JONES] p_0/k_B:  39.77140 [K], p_1: 3.08795 [A], shift/k_B:  -0.04617840 [K], tailcorrection: no
  C_co2 -      C7 [LENNARD_JONES] p_0/k_B:  39.77140 [K], p_1: 3.08795 [A], shift/k_B:  -0.04617840 [K], tailcorrection: no
  C_co2 -      C8 [LENNARD_JONES] p_0/k_B:  39.77140 [K], p_1: 3.08795 [A], shift/k_B:  -0.04617840 [K], tailcorrection: no
  C_co2 -      C9 [LENNARD_JONES] p_0/k_B:  39.77140 [K], p_1: 3.08795 [A], shift/k_B:  -0.04617840 [K], tailcorrection: no
  C_co2 -     C10 [LENNARD_JONES] p_0/k_B:  39.77140 [K], p_1: 3.08795 [A], shift/k_B:  -0.04617840 [K], tailcorrection: no
  C_co2 -     C11 [LENNARD_JONES] p_0/k_B:  39.77140 [K], p_1: 3.08795 [A], shift/k_B:  -0.04617840 [K], tailcorrection: no
  C_co2 -     C12 [LENNARD_JONES] p_0/k_B:  39.77140 [K], p_1: 3.08795 [A], shift/k_B:  -0.04617840 [K], tailcorrection: no
  C_co2 -      N1 [LENNARD_JONES] p_0/k_B:  32.24042 [K], p_1: 3.00285 [A], shift/k_B:  -0.03165690 [K], tailcorrection: no
  C_co2 -      N2 [LENNARD_JONES] p_0/k_B:  32.24042 [K], p_1: 3.00285 [A], shift/k_B:  -0.03165690 [K], tailcorrection: no
  C_co2 -      N3 [LENNARD_JONES] p_0/k_B:  32.24042 [K], p_1: 3.00285 [A], shift/k_B:  -0.03165690 [K], tailcorrection: no
  C_co2 -      N4 [LENNARD_JONES] p_0/k_B:  32.24042 [K], p_1: 3.00285 [A], shift/k_B:  -0.03165690 [K], tailcorrection: no
  C_co2 -      N5 [LENNARD_JONES] p_0/k_B:  32.24042 [K], p_1: 3.00285 [A], shift/k_B:  -0.03165690 [K], tailcorrection: no
  C_co2 -      N6 [LENNARD_JONES] p_0/k_B:  32.24042 [K], p_1: 3.00285 [A], shift/k_B:  -0.03165690 [K], tailcorrection: no
  C_co2 -      N7 [LENNARD_JONES] p_0/k_B:  32.24042 [K], p_1: 3.00285 [A], shift/k_B:  -0.03165690 [K], tailcorrection: no
  C_co2 -      N8 [LENNARD_JONES] p_0/k_B:  32.24042 [K], p_1: 3.00285 [A], shift/k_B:  -0.03165690 [K], tailcorrection: no
  C_co2 -      N9 [LENNARD_JONES] p_0/k_B:  32.24042 [K], p_1: 3.00285 [A], shift/k_B:  -0.03165690 [K], tailcorrection: no
  C_co2 -     N10 [LENNARD_JONES] p_0/k_B:  32.24042 [K], p_1: 3.00285 [A], shift/k_B:  -0.03165690 [K], tailcorrection: no
  C_co2 -     N11 [LENNARD_JONES] p_0/k_B:  32.24042 [K], p_1: 3.00285 [A], shift/k_B:  -0.03165690 [K], tailcorrection: no
  C_co2 -     N12 [LENNARD_JONES] p_0/k_B:  32.24042 [K], p_1: 3.00285 [A], shift/k_B:  -0.03165690 [K], tailcorrection: no
  O_co2 -   O_co2 [LENNARD_JONES] p_0/k_B:  85.67100 [K], p_1: 3.01700 [A], shift/k_B:  -0.08652638 [K], tailcorrection: no
  O_co2 -    O_o2 [LENNARD_JONES] p_0/k_B:  50.86204 [K], p_1: 3.06755 [A], shift/k_B:  -0.05675381 [K], tailcorrection: no
  O_co2 -   O_com [LENNARD_JONES] p_0/k_B:  50.86204 [K], p_1: 3.06755 [A], shift/k_B:  -0.05675381 [K], tailcorrection: no
  O_co2 -    N_n2 [LENNARD_JONES] p_0/k_B:  54.54343 [K], p_1: 3.13885 [A], shift/k_B:  -0.06985527 [K], tailcorrection: no
  O_co2 -   N_com [LENNARD_JONES] p_0/k_B:  54.54343 [K], p_1: 3.13885 [A], shift/k_B:  -0.06985527 [K], tailcorrection: no
  O_co2 -      Ar [LENNARD_JONES] p_0/k_B:  89.31078 [K], p_1: 3.23150 [A], shift/k_B:  -0.13618702 [K], tailcorrection: no
  O_co2 -     CH4 [LENNARD_JONES] p_0/k_B:  67.28414 [K], p_1: 3.22395 [A], shift/k_B:  -0.10116998 [K], tailcorrection: no
  O_co2 -     CH3 [LENNARD_JONES] p_0/k_B:  67.28414 [K], p_1: 3.22395 [A], shift/k_B:  -0.10116998 [K], tailcorrection: no
  O_co2 -     CH2 [LENNARD_JONES] p_0/k_B:  67.28414 [K], p_1: 3.22395 [A], shift/k_B:  -0.10116998 [K], tailcorrection: no
  O_co2 -      CH [LENNARD_JONES] p_0/k_B:  67.28414 [K], p_1: 3.22395 [A], shift/k_B:  -0.10116998 [K], tailcorrection: no
  O_co2 -       C [LENNARD_JONES] p_0/k_B:  67.28414 [K], p_1: 3.22395 [A], shift/k_B:  -0.10116998 [K], tailcorrection: no
  O_co2 -      Hw [LENNARD_JONES] p_0/k_B:  43.55560 [K], p_1: 2.79405 [A], shift/k_B:  -0.02775571 [K], tailcorrection: no
  O_co2 -      Ow [LENNARD_JONES] p_0/k_B:  50.86204 [K], p_1: 3.06755 [A], shift/k_B:  -0.05675381 [K], tailcorrection: no
  O_co2 -     Cu1 [LENNARD_JONES] p_0/k_B:  14.68273 [K], p_1: 3.06535 [A], shift/k_B:  -0.01631319 [K], tailcorrection: no
  O_co2 -     Cu2 [LENNARD_JONES] p_0/k_B:  14.68273 [K], p_1: 3.06535 [A], shift/k_B:  -0.01631319 [K], tailcorrection: no
  O_co2 -     Cu3 [LENNARD_JONES] p_0/k_B:  14.68273 [K], p_1: 3.06535 [A], shift/k_B:  -0.01631319 [K], tailcorrection: no
  O_co2 -     Cu4 [LENNARD_JONES] p_0/k_B:  14.68273 [K], p_1: 3.06535 [A], shift/k_B:  -0.01631319 [K], tailcorrection: no
  O_co2 -     Cu5 [LENNARD_JONES] p_0/k_B:  14.68273 [K], p_1: 3.06535 [A], shift/k_B:  -0.01631319 [K], tailcorrection: no
  O_co2 -     Cu6 [LENNARD_JONES] p_0/k_B:  14.68273 [K], p_1: 3.06535 [A], shift/k_B:  -0.01631319 [K], tailcorrection: no
  O_co2 -     Cu7 [LENNARD_JONES] p_0/k_B:  14.68273 [K], p_1: 3.06535 [A], shift/k_B:  -0.01631319 [K], tailcorrection: no
  O_co2 -     Cu8 [LENNARD_JONES] p_0/k_B:  14.68273 [K], p_1: 3.06535 [A], shift/k_B:  -0.01631319 [K], tailcorrection: no
  O_co2 -     Cu9 [LENNARD_JONES] p_0/k_B:  14.68273 [K], p_1: 3.06535 [A], shift/k_B:  -0.01631319 [K], tailcorrection: no
  O_co2 -    Cu10 [LENNARD_JONES] p_0/k_B:  14.68273 [K], p_1: 3.06535 [A], shift/k_B:  -0.01631319 [K], tailcorrection: no
  O_co2 -      C1 [LENNARD_JONES] p_0/k_B:  67.28414 [K], p_1: 3.22395 [A], shift/k_B:  -0.10116998 [K], tailcorrection: no
  O_co2 -      C2 [LENNARD_JONES] p_0/k_B:  67.28414 [K], p_1: 3.22395 [A], shift/k_B:  -0.10116998 [K], tailcorrection: no
  O_co2 -      C3 [LENNARD_JONES] p_0/k_B:  67.28414 [K], p_1: 3.22395 [A], shift/k_B:  -0.10116998 [K], tailcorrection: no
  O_co2 -      C4 [LENNARD_JONES] p_0/k_B:  67.28414 [K], p_1: 3.22395 [A], shift/k_B:  -0.10116998 [K], tailcorrection: no
  O_co2 -      C5 [LENNARD_JONES] p_0/k_B:  67.28414 [K], p_1: 3.22395 [A], shift/k_B:  -0.10116998 [K], tailcorrection: no
  O_co2 -      C6 [LENNARD_JONES] p_0/k_B:  67.28414 [K], p_1: 3.22395 [A], shift/k_B:  -0.10116998 [K], tailcorrection: no
  O_co2 -      C7 [LENNARD_JONES] p_0/k_B:  67.28414 [K], p_1: 3.22395 [A], shift/k_B:  -0.10116998 [K], tailcorrection: no
  O_co2 -      C8 [LENNARD_JONES] p_0/k_B:  67.28414 [K], p_1: 3.22395 [A], shift/k_B:  -0.10116998 [K], tailcorrection: no
  O_co2 -      C9 [LENNARD_JONES] p_0/k_B:  67.28414 [K], p_1: 3.22395 [A], shift/k_B:  -0.10116998 [K], tailcorrection: no
  O_co2 -     C10 [LENNARD_JONES] p_0/k_B:  67.28414 [K], p_1: 3.22395 [A], shift/k_B:  -0.10116998 [K], tailcorrection: no
  O_co2 -     C11 [LENNARD_JONES] p_0/k_B:  67.28414 [K], p_1: 3.22395 [A], shift/k_B:  -0.10116998 [K], tailcorrection: no
  O_co2 -     C12 [LENNARD_JONES] p_0/k_B:  67.28414 [K], p_1: 3.22395 [A], shift/k_B:  -0.10116998 [K], tailcorrection: no
  O_co2 -      N1 [LENNARD_JONES] p_0/k_B:  54.54343 [K], p_1: 3.13885 [A], shift/k_B:  -0.06985527 [K], tailcorrection: no
  O_co2 -      N2 [LENNARD_JONES] p_0/k_B:  54.54343 [K], p_1: 3.13885 [A], shift/k_B:  -0.06985527 [K], tailcorrection: no
  O_co2 -      N3 [LENNARD_JONES] p_0/k_B:  54.54343 [K], p_1: 3.13885 [A], shift/k_B:  -0.06985527 [K], tailcorrection: no
  O_co2 -      N4 [LENNARD_JONES] p_0/k_B:  54.54343 [K], p_1: 3.13885 [A], shift/k_B:  -0.06985527 [K], tailcorrection: no
  O_co2 -      N5 [LENNARD_JONES] p_0/k_B:  54.54343 [K], p_1: 3.13885 [A], shift/k_B:  -0.06985527 [K], tailcorrection: no
  O_co2 -      N6 [LENNARD_JONES] p_0/k_B:  54.54343 [K], p_1: 3.13885 [A], shift/k_B:  -0.06985527 [K], tailcorrection: no
  O_co2 -      N7 [LENNARD_JONES] p_0/k_B:  54.54343 [K], p_1: 3.13885 [A], shift/k_B:  -0.06985527 [K], tailcorrection: no
  O_co2 -      N8 [LENNARD_JONES] p_0/k_B:  54.54343 [K], p_1: 3.13885 [A], shift/k_B:  -0.06985527 [K], tailcorrection: no
  O_co2 -      N9 [LENNARD_JONES] p_0/k_B:  54.54343 [K], p_1: 3.13885 [A], shift/k_B:  -0.06985527 [K], tailcorrection: no
  O_co2 -     N10 [LENNARD_JONES] p_0/k_B:  54.54343 [K], p_1: 3.13885 [A], shift/k_B:  -0.06985527 [K], tailcorrection: no
  O_co2 -     N11 [LENNARD_JONES] p_0/k_B:  54.54343 [K], p_1: 3.13885 [A], shift/k_B:  -0.06985527 [K], tailcorrection: no
  O_co2 -     N12 [LENNARD_JONES] p_0/k_B:  54.54343 [K], p_1: 3.13885 [A], shift/k_B:  -0.06985527 [K], tailcorrection: no
   O_o2 -    O_o2 [LENNARD_JONES] p_0/k_B:  30.19630 [K], p_1: 3.11810 [A], shift/k_B:  -0.03716488 [K], tailcorrection: no
   O_o2 -   O_com [LENNARD_JONES] p_0/k_B:  30.19630 [K], p_1: 3.11810 [A], shift/k_B:  -0.03716488 [K], tailcorrection: no
   O_o2 -    N_n2 [LENNARD_JONES] p_0/k_B:  32.38190 [K], p_1: 3.18940 [A], shift/k_B:  -0.04564316 [K], tailcorrection: no
   O_o2 -   N_com [LENNARD_JONES] p_0/k_B:  32.38190 [K], p_1: 3.18940 [A], shift/k_B:  -0.04564316 [K], tailcorrection: no
   O_o2 -      Ar [LENNARD_JONES] p_0/k_B:  53.02294 [K], p_1: 3.28205 [A], shift/k_B:  -0.08874128 [K], tailcorrection: no
   O_o2 -     CH4 [LENNARD_JONES] p_0/k_B:  39.94594 [K], p_1: 3.27450 [A], shift/k_B:  -0.06593801 [K], tailcorrection: no
   O_o2 -     CH3 [LENNARD_JONES] p_0/k_B:  39.94594 [K], p_1: 3.27450 [A], shift/k_B:  -0.06593801 [K], tailcorrection: no
   O_o2 -     CH2 [LENNARD_JONES] p_0/k_B:  39.94594 [K], p_1: 3.27450 [A], shift/k_B:  -0.06593801 [K], tailcorrection: no
   O_o2 -      CH [LENNARD_JONES] p_0/k_B:  39.94594 [K], p_1: 3.27450 [A], shift/k_B:  -0.06593801 [K], tailcorrection: no
   O_o2 -       C [LENNARD_JONES] p_0/k_B:  39.94594 [K], p_1: 3.27450 [A], shift/k_B:  -0.06593801 [K], tailcorrection: no
   O_o2 -      Hw [LENNARD_JONES] p_0/k_B:  25.85854 [K], p_1: 2.84460 [A], shift/k_B:  -0.01834960 [K], tailcorrection: no
   O_o2 -      Ow [LENNARD_JONES] p_0/k_B:  30.19630 [K], p_1: 3.11810 [A], shift/k_B:  -0.03716488 [K], tailcorrection: no
   O_o2 -     Cu1 [LENNARD_JONES] p_0/k_B:   8.71699 [K], p_1: 3.11590 [A], shift/k_B:  -0.01068334 [K], tailcorrection: no
   O_o2 -     Cu2 [LENNARD_JONES] p_0/k_B:   8.71699 [K], p_1: 3.11590 [A], shift/k_B:  -0.01068334 [K], tailcorrection: no
   O_o2 -     Cu3 [LENNARD_JONES] p_0/k_B:   8.71699 [K], p_1: 3.11590 [A], shift/k_B:  -0.01068334 [K], tailcorrection: no
   O_o2 -     Cu4 [LENNARD_JONES] p_0/k_B:   8.71699 [K], p_1: 3.11590 [A], shift/k_B:  -0.01068334 [K], tailcorrection: no
   O_o2 -     Cu5 [LENNARD_JONES] p_0/k_B:   8.71699 [K], p_1: 3.11590 [A], shift/k_B:  -0.01068334 [K], tailcorrection: no
   O_o2 -     Cu6 [LENNARD_JONES] p_0/k_B:   8.71699 [K], p_1: 3.11590 [A], shift/k_B:  -0.01068334 [K], tailcorrection: no
   O_o2 -     Cu7 [LENNARD_JONES] p_0/k_B:   8.71699 [K], p_1: 3.11590 [A], shift/k_B:  -0.01068334 [K], tailcorrection: no
   O_o2 -     Cu8 [LENNARD_JONES] p_0/k_B:   8.71699 [K], p_1: 3.11590 [A], shift/k_B:  -0.01068334 [K], tailcorrection: no
   O_o2 -     Cu9 [LENNARD_JONES] p_0/k_B:   8.71699 [K], p_1: 3.11590 [A], shift/k_B:  -0.01068334 [K], tailcorrection: no
   O_o2 -    Cu10 [LENNARD_JONES] p_0/k_B:   8.71699 [K], p_1: 3.11590 [A], shift/k_B:  -0.01068334 [K], tailcorrection: no
   O_o2 -      C1 [LENNARD_JONES] p_0/k_B:  39.94594 [K], p_1: 3.27450 [A], shift/k_B:  -0.06593801 [K], tailcorrection: no
   O_o2 -      C2 [LENNARD_JONES] p_0/k_B:  39.94594 [K], p_1: 3.27450 [A], shift/k_B:  -0.06593801 [K], tailcorrection: no
   O_o2 -      C3 [LENNARD_JONES] p_0/k_B:  39.94594 [K], p_1: 3.27450 [A], shift/k_B:  -0.06593801 [K], tailcorrection: no
   O_o2 -      C4 [LENNARD_JONES] p_0/k_B:  39.94594 [K], p_1: 3.27450 [A], shift/k_B:  -0.06593801 [K], tailcorrection: no
   O_o2 -      C5 [LENNARD_JONES] p_0/k_B:  39.94594 [K], p_1: 3.27450 [A], shift/k_B:  -0.06593801 [K], tailcorrection: no
   O_o2 -      C6 [LENNARD_JONES] p_0/k_B:  39.94594 [K], p_1: 3.27450 [A], shift/k_B:  -0.06593801 [K], tailcorrection: no
   O_o2 -      C7 [LENNARD_JONES] p_0/k_B:  39.94594 [K], p_1: 3.27450 [A], shift/k_B:  -0.06593801 [K], tailcorrection: no
   O_o2 -      C8 [LENNARD_JONES] p_0/k_B:  39.94594 [K], p_1: 3.27450 [A], shift/k_B:  -0.06593801 [K], tailcorrection: no
   O_o2 -      C9 [LENNARD_JONES] p_0/k_B:  39.94594 [K], p_1: 3.27450 [A], shift/k_B:  -0.06593801 [K], tailcorrection: no
   O_o2 -     C10 [LENNARD_JONES] p_0/k_B:  39.94594 [K], p_1: 3.27450 [A], shift/k_B:  -0.06593801 [K], tailcorrection: no
   O_o2 -     C11 [LENNARD_JONES] p_0/k_B:  39.94594 [K], p_1: 3.27450 [A], shift/k_B:  -0.06593801 [K], tailcorrection: no
   O_o2 -     C12 [LENNARD_JONES] p_0/k_B:  39.94594 [K], p_1: 3.27450 [A], shift/k_B:  -0.06593801 [K], tailcorrection: no
   O_o2 -      N1 [LENNARD_JONES] p_0/k_B:  32.38190 [K], p_1: 3.18940 [A], shift/k_B:  -0.04564316 [K], tailcorrection: no
   O_o2 -      N2 [LENNARD_JONES] p_0/k_B:  32.38190 [K], p_1: 3.18940 [A], shift/k_B:  -0.04564316 [K], tailcorrection: no
   O_o2 -      N3 [LENNARD_JONES] p_0/k_B:  32.38190 [K], p_1: 3.18940 [A], shift/k_B:  -0.04564316 [K], tailcorrection: no
   O_o2 -      N4 [LENNARD_JONES] p_0/k_B:  32.38190 [K], p_1: 3.18940 [A], shift/k_B:  -0.04564316 [K], tailcorrection: no
   O_o2 -      N5 [LENNARD_JONES] p_0/k_B:  32.38190 [K], p_1: 3.18940 [A], shift/k_B:  -0.04564316 [K], tailcorrection: no
   O_o2 -      N6 [LENNARD_JONES] p_0/k_B:  32.38190 [K], p_1: 3.18940 [A], shift/k_B:  -0.04564316 [K], tailcorrection: no
   O_o2 -      N7 [LENNARD_JONES] p_0/k_B:  32.38190 [K], p_1: 3.18940 [A], shift/k_B:  -0.04564316 [K], tailcorrection: no
   O_o2 -      N8 [LENNARD_JONES] p_0/k_B:  32.38190 [K], p_1: 3.18940 [A], shift/k_B:  -0.04564316 [K], tailcorrection: no
   O_o2 -      N9 [LENNARD_JONES] p_0/k_B:  32.38190 [K], p_1: 3.18940 [A], shift/k_B:  -0.04564316 [K], tailcorrection: no
   O_o2 -     N10 [LENNARD_JONES] p_0/k_B:  32.38190 [K], p_1: 3.18940 [A], shift/k_B:  -0.04564316 [K], tailcorrection: no
   O_o2 -     N11 [LENNARD_JONES] p_0/k_B:  32.38190 [K], p_1: 3.18940 [A], shift/k_B:  -0.04564316 [K], tailcorrection: no
   O_o2 -     N12 [LENNARD_JONES] p_0/k_B:  32.38190 [K], p_1: 3.18940 [A], shift/k_B:  -0.04564316 [K], tailcorrection: no
  O_com -   O_com [LENNARD_JONES] p_0/k_B:  30.19630 [K], p_1: 3.11810 [A], shift/k_B:  -0.03716488 [K], tailcorrection: no
  O_com -    N_n2 [LENNARD_JONES] p_0/k_B:  32.38190 [K], p_1: 3.18940 [A], shift/k_B:  -0.04564316 [K], tailcorrection: no
  O_com -   N_com [LENNARD_JONES] p_0/k_B:  32.38190 [K], p_1: 3.18940 [A], shift/k_B:  -0.04564316 [K], tailcorrection: no
  O_com -      Ar [LENNARD_JONES] p_0/k_B:  53.02294 [K], p_1: 3.28205 [A], shift/k_B:  -0.08874128 [K], tailcorrection: no
  O_com -     CH4 [LENNARD_JONES] p_0/k_B:  39.94594 [K], p_1: 3.27450 [A], shift/k_B:  -0.06593801 [K], tailcorrection: no
  O_com -     CH3 [LENNARD_JONES] p_0/k_B:  39.94594 [K], p_1: 3.27450 [A], shift/k_B:  -0.06593801 [K], tailcorrection: no
  O_com -     CH2 [LENNARD_JONES] p_0/k_B:  39.94594 [K], p_1: 3.27450 [A], shift/k_B:  -0.06593801 [K], tailcorrection: no
  O_com -      CH [LENNARD_JONES] p_0/k_B:  39.94594 [K], p_1: 3.27450 [A], shift/k_B:  -0.06593801 [K], tailcorrection: no
  O_com -       C [LENNARD_JONES] p_0/k_B:  39.94594 [K], p_1: 3.27450 [A], shift/k_B:  -0.06593801 [K], tailcorrection: no
  O_com -      Hw [LENNARD_JONES] p_0/k_B:  25.85854 [K], p_1: 2.84460 [A], shift/k_B:  -0.01834960 [K], tailcorrection: no
  O_com -      Ow [LENNARD_JONES] p_0/k_B:  30.19630 [K], p_1: 3.11810 [A], shift/k_B:  -0.03716488 [K], tailcorrection: no
  O_com -     Cu1 [LENNARD_JONES] p_0/k_B:   8.71699 [K], p_1: 3.11590 [A], shift/k_B:  -0.01068334 [K], tailcorrection: no
  O_com -     Cu2 [LENNARD_JONES] p_0/k_B:   8.71699 [K], p_1: 3.11590 [A], shift/k_B:  -0.01068334 [K], tailcorrection: no
  O_com -     Cu3 [LENNARD_JONES] p_0/k_B:   8.71699 [K], p_1: 3.11590 [A], shift/k_B:  -0.01068334 [K], tailcorrection: no
  O_com -     Cu4 [LENNARD_JONES] p_0/k_B:   8.71699 [K], p_1: 3.11590 [A], shift/k_B:  -0.01068334 [K], tailcorrection: no
  O_com -     Cu5 [LENNARD_JONES] p_0/k_B:   8.71699 [K], p_1: 3.11590 [A], shift/k_B:  -0.01068334 [K], tailcorrection: no
  O_com -     Cu6 [LENNARD_JONES] p_0/k_B:   8.71699 [K], p_1: 3.11590 [A], shift/k_B:  -0.01068334 [K], tailcorrection: no
  O_com -     Cu7 [LENNARD_JONES] p_0/k_B:   8.71699 [K], p_1: 3.11590 [A], shift/k_B:  -0.01068334 [K], tailcorrection: no
  O_com -     Cu8 [LENNARD_JONES] p_0/k_B:   8.71699 [K], p_1: 3.11590 [A], shift/k_B:  -0.01068334 [K], tailcorrection: no
  O_com -     Cu9 [LENNARD_JONES] p_0/k_B:   8.71699 [K], p_1: 3.11590 [A], shift/k_B:  -0.01068334 [K], tailcorrection: no
  O_com -    Cu10 [LENNARD_JONES] p_0/k_B:   8.71699 [K], p_1: 3.11590 [A], shift/k_B:  -0.01068334 [K], tailcorrection: no
  O_com -      C1 [LENNARD_JONES] p_0/k_B:  39.94594 [K], p_1: 3.27450 [A], shift/k_B:  -0.06593801 [K], tailcorrection: no
  O_com -      C2 [LENNARD_JONES] p_0/k_B:  39.94594 [K], p_1: 3.27450 [A], shift/k_B:  -0.06593801 [K], tailcorrection: no
  O_com -      C3 [LENNARD_JONES] p_0/k_B:  39.94594 [K], p_1: 3.27450 [A], shift/k_B:  -0.06593801 [K], tailcorrection: no
  O_com -      C4 [LENNARD_JONES] p_0/k_B:  39.94594 [K], p_1: 3.27450 [A], shift/k_B:  -0.06593801 [K], tailcorrection: no
  O_com -      C5 [LENNARD_JONES] p_0/k_B:  39.94594 [K], p_1: 3.27450 [A], shift/k_B:  -0.06593801 [K], tailcorrection: no
  O_com -      C6 [LENNARD_JONES] p_0/k_B:  39.94594 [K], p_1: 3.27450 [A], shift/k_B:  -0.06593801 [K], tailcorrection: no
  O_com -      C7 [LENNARD_JONES] p_0/k_B:  39.94594 [K], p_1: 3.27450 [A], shift/k_B:  -0.06593801 [K], tailcorrection: no
  O_com -      C8 [LENNARD_JONES] p_0/k_B:  39.94594 [K], p_1: 3.27450 [A], shift/k_B:  -0.06593801 [K], tailcorrection: no
  O_com -      C9 [LENNARD_JONES] p_0/k_B:  39.94594 [K], p_1: 3.27450 [A], shift/k_B:  -0.06593801 [K], tailcorrection: no
  O_com -     C10 [LENNARD_JONES] p_0/k_B:  39.94594 [K], p_1: 3.27450 [A], shift/k_B:  -0.06593801 [K], tailcorrection: no
  O_com -     C11 [LENNARD_JONES] p_0/k_B:  39.94594 [K], p_1: 3.27450 [A], shift/k_B:  -0.06593801 [K], tailcorrection: no
  O_com -     C12 [LENNARD_JONES] p_0/k_B:  39.94594 [K], p_1: 3.27450 [A], shift/k_B:  -0.06593801 [K], tailcorrection: no
  O_com -      N1 [LENNARD_JONES] p_0/k_B:  32.38190 [K], p_1: 3.18940 [A], shift/k_B:  -0.04564316 [K], tailcorrection: no
  O_com -      N2 [LENNARD_JONES] p_0/k_B:  32.38190 [K], p_1: 3.18940 [A], shift/k_B:  -0.04564316 [K], tailcorrection: no
  O_com -      N3 [LENNARD_JONES] p_0/k_B:  32.38190 [K], p_1: 3.18940 [A], shift/k_B:  -0.04564316 [K], tailcorrection: no
  O_com -      N4 [LENNARD_JONES] p_0/k_B:  32.38190 [K], p_1: 3.18940 [A], shift/k_B:  -0.04564316 [K], tailcorrection: no
  O_com -      N5 [LENNARD_JONES] p_0/k_B:  32.38190 [K], p_1: 3.18940 [A], shift/k_B:  -0.04564316 [K], tailcorrection: no
  O_com -      N6 [LENNARD_JONES] p_0/k_B:  32.38190 [K], p_1: 3.18940 [A], shift/k_B:  -0.04564316 [K], tailcorrection: no
  O_com -      N7 [LENNARD_JONES] p_0/k_B:  32.38190 [K], p_1: 3.18940 [A], shift/k_B:  -0.04564316 [K], tailcorrection: no
  O_com -      N8 [LENNARD_JONES] p_0/k_B:  32.38190 [K], p_1: 3.18940 [A], shift/k_B:  -0.04564316 [K], tailcorrection: no
  O_com -      N9 [LENNARD_JONES] p_0/k_B:  32.38190 [K], p_1: 3.18940 [A], shift/k_B:  -0.04564316 [K], tailcorrection: no
  O_com -     N10 [LENNARD_JONES] p_0/k_B:  32.38190 [K], p_1: 3.18940 [A], shift/k_B:  -0.04564316 [K], tailcorrection: no
  O_com -     N11 [LENNARD_JONES] p_0/k_B:  32.38190 [K], p_1: 3.18940 [A], shift/k_B:  -0.04564316 [K], tailcorrection: no
  O_com -     N12 [LENNARD_JONES] p_0/k_B:  32.38190 [K], p_1: 3.18940 [A], shift/k_B:  -0.04564316 [K], tailcorrection: no
   N_n2 -    N_n2 [LENNARD_JONES] p_0/k_B:  34.72570 [K], p_1: 3.26070 [A], shift/k_B:  -0.05588738 [K], tailcorrection: no
   N_n2 -   N_com [LENNARD_JONES] p_0/k_B:  34.72570 [K], p_1: 3.26070 [A], shift/k_B:  -0.05588738 [K], tailcorrection: no
   N_n2 -      Ar [LENNARD_JONES] p_0/k_B:  56.86074 [K], p_1: 3.35335 [A], shift/k_B:  -0.10825587 [K], tailcorrection: no
   N_n2 -     CH4 [LENNARD_JONES] p_0/k_B:  42.83722 [K], p_1: 3.34580 [A], shift/k_B:  -0.08046177 [K], tailcorrection: no
   N_n2 -     CH3 [LENNARD_JONES] p_0/k_B:  42.83722 [K], p_1: 3.34580 [A], shift/k_B:  -0.08046177 [K], tailcorrection: no
   N_n2 -     CH2 [LENNARD_JONES] p_0/k_B:  42.83722 [K], p_1: 3.34580 [A], shift/k_B:  -0.08046177 [K], tailcorrection: no
   N_n2 -      CH [LENNARD_JONES] p_0/k_B:  42.83722 [K], p_1: 3.34580 [A], shift/k_B:  -0.08046177 [K], tailcorrection: no
   N_n2 -       C [LENNARD_JONES] p_0/k_B:  42.83722 [K], p_1: 3.34580 [A], shift/k_B:  -0.08046177 [K], tailcorrection: no
   N_n2 -      Hw [LENNARD_JONES] p_0/k_B:  27.73017 [K], p_1: 2.91590 [A], shift/k_B:  -0.02282819 [K], tailcorrection: no
   N_n2 -      Ow [LENNARD_JONES] p_0/k_B:  32.38190 [K], p_1: 3.18940 [A], shift/k_B:  -0.04564316 [K], tailcorrection: no
   N_n2 -     Cu1 [LENNARD_JONES] p_0/k_B:   9.34793 [K], p_1: 3.18720 [A], shift/k_B:  -0.01312174 [K], tailcorrection: no
   N_n2 -     Cu2 [LENNARD_JONES] p_0/k_B:   9.34793 [K], p_1: 3.18720 [A], shift/k_B:  -0.01312174 [K], tailcorrection: no
   N_n2 -     Cu3 [LENNARD_JONES] p_0/k_B:   9.34793 [K], p_1: 3.18720 [A], shift/k_B:  -0.01312174 [K], tailcorrection: no
   N_n2 -     Cu4 [LENNARD_JONES] p_0/k_B:   9.34793 [K], p_1: 3.18720 [A], shift/k_B:  -0.01312174 [K], tailcorrection: no
   N_n2 -     Cu5 [LENNARD_JONES] p_0/k_B:   9.34793 [K], p_1: 3.18720 [A], shift/k_B:  -0.01312174 [K], tailcorrection: no
   N_n2 -     Cu6 [LENNARD_JONES] p_0/k_B:   9.34793 [K], p_1: 3.18720 [A], shift/k_B:  -0.01312174 [K], tailcorrection: no
   N_n2 -     Cu7 [LENNARD_JONES] p_0/k_B:   9.34793 [K], p_1: 3.18720 [A], shift/k_B:  -0.01312174 [K], tailcorrection: no
   N_n2 -     Cu8 [LENNARD_JONES] p_0/k_B:   9.34793 [K], p_1: 3.18720 [A], shift/k_B:  -0.01312174 [K], tailcorrection: no
   N_n2 -     Cu9 [LENNARD_JONES] p_0/k_B:   9.34793 [K], p_1: 3.18720 [A], shift/k_B:  -0.01312174 [K], tailcorrection: no
   N_n2 -    Cu10 [LENNARD_JONES] p_0/k_B:   9.34793 [K], p_1: 3.18720 [A], shift/k_B:  -0.01312174 [K], tailcorrection: no
   N_n2 -      C1 [LENNARD_JONES] p_0/k_B:  42.83722 [K], p_1: 3.34580 [A], shift/k_B:  -0.08046177 [K], tailcorrection: no
   N_n2 -      C2 [LENNARD_JONES] p_0/k_B:  42.83722 [K], p_1: 3.34580 [A], shift/k_B:  -0.08046177 [K], tailcorrection: no
   N_n2 -      C3 [LENNARD_JONES] p_0/k_B:  42.83722 [K], p_1: 3.34580 [A], shift/k_B:  -0.08046177 [K], tailcorrection: no
   N_n2 -      C4 [LENNARD_JONES] p_0/k_B:  42.83722 [K], p_1: 3.34580 [A], shift/k_B:  -0.08046177 [K], tailcorrection: no
   N_n2 -      C5 [LENNARD_JONES] p_0/k_B:  42.83722 [K], p_1: 3.34580 [A], shift/k_B:  -0.08046177 [K], tailcorrection: no
   N_n2 -      C6 [LENNARD_JONES] p_0/k_B:  42.83722 [K], p_1: 3.34580 [A], shift/k_B:  -0.08046177 [K], tailcorrection: no
   N_n2 -      C7 [LENNARD_JONES] p_0/k_B:  42.83722 [K], p_1: 3.34580 [A], shift/k_B:  -0.08046177 [K], tailcorrection: no
   N_n2 -      C8 [LENNARD_JONES] p_0/k_B:  42.83722 [K], p_1: 3.34580 [A], shift/k_B:  -0.08046177 [K], tailcorrection: no
   N_n2 -      C9 [LENNARD_JONES] p_0/k_B:  42.83722 [K], p_1: 3.34580 [A], shift/k_B:  -0.08046177 [K], tailcorrection: no
   N_n2 -     C10 [LENNARD_JONES] p_0/k_B:  42.83722 [K], p_1: 3.34580 [A], shift/k_B:  -0.08046177 [K], tailcorrection: no
   N_n2 -     C11 [LENNARD_JONES] p_0/k_B:  42.83722 [K], p_1: 3.34580 [A], shift/k_B:  -0.08046177 [K], tailcorrection: no
   N_n2 -     C12 [LENNARD_JONES] p_0/k_B:  42.83722 [K], p_1: 3.34580 [A], shift/k_B:  -0.08046177 [K], tailcorrection: no
   N_n2 -      N1 [LENNARD_JONES] p_0/k_B:  34.72570 [K], p_1: 3.26070 [A], shift/k_B:  -0.05588738 [K], tailcorrection: no
   N_n2 -      N2 [LENNARD_JONES] p_0/k_B:  34.72570 [K], p_1: 3.26070 [A], shift/k_B:  -0.05588738 [K], tailcorrection: no
   N_n2 -      N3 [LENNARD_JONES] p_0/k_B:  34.72570 [K], p_1: 3.26070 [A], shift/k_B:  -0.05588738 [K], tailcorrection: no
   N_n2 -      N4 [LENNARD_JONES] p_0/k_B:  34.72570 [K], p_1: 3.26070 [A], shift/k_B:  -0.05588738 [K], tailcorrection: no
   N_n2 -      N5 [LENNARD_JONES] p_0/k_B:  34.72570 [K], p_1: 3.26070 [A], shift/k_B:  -0.05588738 [K], tailcorrection: no
   N_n2 -      N6 [LENNARD_JONES] p_0/k_B:  34.72570 [K], p_1: 3.26070 [A], shift/k_B:  -0.05588738 [K], tailcorrection: no
   N_n2 -      N7 [LENNARD_JONES] p_0/k_B:  34.72570 [K], p_1: 3.26070 [A], shift/k_B:  -0.05588738 [K], tailcorrection: no
   N_n2 -      N8 [LENNARD_JONES] p_0/k_B:  34.72570 [K], p_1: 3.26070 [A], shift/k_B:  -0.05588738 [K], tailcorrection: no
   N_n2 -      N9 [LENNARD_JONES] p_0/k_B:  34.72570 [K], p_1: 3.26070 [A], shift/k_B:  -0.05588738 [K], tailcorrection: no
   N_n2 -     N10 [LENNARD_JONES] p_0/k_B:  34.72570 [K], p_1: 3.26070 [A], shift/k_B:  -0.05588738 [K], tailcorrection: no
   N_n2 -     N11 [LENNARD_JONES] p_0/k_B:  34.72570 [K], p_1: 3.26070 [A], shift/k_B:  -0.05588738 [K], tailcorrection: no
   N_n2 -     N12 [LENNARD_JONES] p_0/k_B:  34.72570 [K], p_1: 3.26070 [A], shift/k_B:  -0.05588738 [K], tailcorrection: no
  N_com -   N_com [LENNARD_JONES] p_0/k_B:  34.72570 [K], p_1: 3.26070 [A], shift/k_B:  -0.05588738 [K], tailcorrection: no
  N_com -      Ar [LENNARD_JONES] p_0/k_B:  56.86074 [K], p_1: 3.35335 [A], shift/k_B:  -0.10825587 [K], tailcorrection: no
  N_com -     CH4 [LENNARD_JONES] p_0/k_B:  42.83722 [K], p_1: 3.34580 [A], shift/k_B:  -0.08046177 [K], tailcorrection: no
  N_com -     CH3 [LENNARD_JONES] p_0/k_B:  42.83722 [K], p_1: 3.34580 [A], shift/k_B:  -0.08046177 [K], tailcorrection: no
  N_com -     CH2 [LENNARD_JONES] p_0/k_B:  42.83722 [K], p_1: 3.34580 [A], shift/k_B:  -0.08046177 [K], tailcorrection: no
  N_com -      CH [LENNARD_JONES] p_0/k_B:  42.83722 [K], p_1: 3.34580 [A], shift/k_B:  -0.08046177 [K], tailcorrection: no
  N_com -       C [LENNARD_JONES] p_0/k_B:  42.83722 [K], p_1: 3.34580 [A], shift/k_B:  -0.08046177 [K], tailcorrection: no
  N_com -      Hw [LENNARD_JONES] p_0/k_B:  27.73017 [K], p_1: 2.91590 [A], shift/k_B:  -0.02282819 [K], tailcorrection: no
  N_com -      Ow [LENNARD_JONES] p_0/k_B:  32.38190 [K], p_1: 3.18940 [A], shift/k_B:  -0.04564316 [K], tailcorrection: no
  N_com -     Cu1 [LENNARD_JONES] p_0/k_B:   9.34793 [K], p_1: 3.18720 [A], shift/k_B:  -0.01312174 [K], tailcorrection: no
  N_com -     Cu2 [LENNARD_JONES] p_0/k_B:   9.34793 [K], p_1: 3.18720 [A], shift/k_B:  -0.01312174 [K], tailcorrection: no
  N_com -     Cu3 [LENNARD_JONES] p_0/k_B:   9.34793 [K], p_1: 3.18720 [A], shift/k_B:  -0.01312174 [K], tailcorrection: no
  N_com -     Cu4 [LENNARD_JONES] p_0/k_B:   9.34793 [K], p_1: 3.18720 [A], shift/k_B:  -0.01312174 [K], tailcorrection: no
  N_com -     Cu5 [LENNARD_JONES] p_0/k_B:   9.34793 [K], p_1: 3.18720 [A], shift/k_B:  -0.01312174 [K], tailcorrection: no
  N_com -     Cu6 [LENNARD_JONES] p_0/k_B:   9.34793 [K], p_1: 3.18720 [A], shift/k_B:  -0.01312174 [K], tailcorrection: no
  N_com -     Cu7 [LENNARD_JONES] p_0/k_B:   9.34793 [K], p_1: 3.18720 [A], shift/k_B:  -0.01312174 [K], tailcorrection: no
  N_com -     Cu8 [LENNARD_JONES] p_0/k_B:   9.34793 [K], p_1: 3.18720 [A], shift/k_B:  -0.01312174 [K], tailcorrection: no
  N_com -     Cu9 [LENNARD_JONES] p_0/k_B:   9.34793 [K], p_1: 3.18720 [A], shift/k_B:  -0.01312174 [K], tailcorrection: no
  N_com -    Cu10 [LENNARD_JONES] p_0/k_B:   9.34793 [K], p_1: 3.18720 [A], shift/k_B:  -0.01312174 [K], tailcorrection: no
  N_com -      C1 [LENNARD_JONES] p_0/k_B:  42.83722 [K], p_1: 3.34580 [A], shift/k_B:  -0.08046177 [K], tailcorrection: no
  N_com -      C2 [LENNARD_JONES] p_0/k_B:  42.83722 [K], p_1: 3.34580 [A], shift/k_B:  -0.08046177 [K], tailcorrection: no
  N_com -      C3 [LENNARD_JONES] p_0/k_B:  42.83722 [K], p_1: 3.34580 [A], shift/k_B:  -0.08046177 [K], tailcorrection: no
  N_com -      C4 [LENNARD_JONES] p_0/k_B:  42.83722 [K], p_1: 3.34580 [A], shift/k_B:  -0.08046177 [K], tailcorrection: no
  N_com -      C5 [LENNARD_JONES] p_0/k_B:  42.83722 [K], p_1: 3.34580 [A], shift/k_B:  -0.08046177 [K], tailcorrection: no
  N_com -      C6 [LENNARD_JONES] p_0/k_B:  42.83722 [K], p_1: 3.34580 [A], shift/k_B:  -0.08046177 [K], tailcorrection: no
  N_com -      C7 [LENNARD_JONES] p_0/k_B:  42.83722 [K], p_1: 3.34580 [A], shift/k_B:  -0.08046177 [K], tailcorrection: no
  N_com -      C8 [LENNARD_JONES] p_0/k_B:  42.83722 [K], p_1: 3.34580 [A], shift/k_B:  -0.08046177 [K], tailcorrection: no
  N_com -      C9 [LENNARD_JONES] p_0/k_B:  42.83722 [K], p_1: 3.34580 [A], shift/k_B:  -0.08046177 [K], tailcorrection: no
  N_com -     C10 [LENNARD_JONES] p_0/k_B:  42.83722 [K], p_1: 3.34580 [A], shift/k_B:  -0.08046177 [K], tailcorrection: no
  N_com -     C11 [LENNARD_JONES] p_0/k_B:  42.83722 [K], p_1: 3.34580 [A], shift/k_B:  -0.08046177 [K], tailcorrection: no
  N_com -     C12 [LENNARD_JONES] p_0/k_B:  42.83722 [K], p_1: 3.34580 [A], shift/k_B:  -0.08046177 [K], tailcorrection: no
  N_com -      N1 [LENNARD_JONES] p_0/k_B:  34.72570 [K], p_1: 3.26070 [A], shift/k_B:  -0.05588738 [K], tailcorrection: no
  N_com -      N2 [LENNARD_JONES] p_0/k_B:  34.72570 [K], p_1: 3.26070 [A], shift/k_B:  -0.05588738 [K], tailcorrection: no
  N_com -      N3 [LENNARD_JONES] p_0/k_B:  34.72570 [K], p_1: 3.26070 [A], shift/k_B:  -0.05588738 [K], tailcorrection: no
  N_com -      N4 [LENNARD_JONES] p_0/k_B:  34.72570 [K], p_1: 3.26070 [A], shift/k_B:  -0.05588738 [K], tailcorrection: no
  N_com -      N5 [LENNARD_JONES] p_0/k_B:  34.72570 [K], p_1: 3.26070 [A], shift/k_B:  -0.05588738 [K], tailcorrection: no
  N_com -      N6 [LENNARD_JONES] p_0/k_B:  34.72570 [K], p_1: 3.26070 [A], shift/k_B:  -0.05588738 [K], tailcorrection: no
  N_com -      N7 [LENNARD_JONES] p_0/k_B:  34.72570 [K], p_1: 3.26070 [A], shift/k_B:  -0.05588738 [K], tailcorrection: no
  N_com -      N8 [LENNARD_JONES] p_0/k_B:  34.72570 [K], p_1: 3.26070 [A], shift/k_B:  -0.05588738 [K], tailcorrection: no
  N_com -      N9 [LENNARD_JONES] p_0/k_B:  34.72570 [K], p_1: 3.26070 [A], shift/k_B:  -0.05588738 [K], tailcorrection: no
  N_com -     N10 [LENNARD_JONES] p_0/k_B:  34.72570 [K], p_1: 3.26070 [A], shift/k_B:  -0.05588738 [K], tailcorrection: no
  N_com -     N11 [LENNARD_JONES] p_0/k_B:  34.72570 [K], p_1: 3.26070 [A], shift/k_B:  -0.05588738 [K], tailcorrection: no
  N_com -     N12 [LENNARD_JONES] p_0/k_B:  34.72570 [K], p_1: 3.26070 [A], shift/k_B:  -0.05588738 [K], tailcorrection: no
     Ar -      Ar [LENNARD_JONES] p_0/k_B:  93.10520 [K], p_1: 3.44600 [A], shift/k_B:  -0.20873461 [K], tailcorrection: no
     Ar -     CH4 [LENNARD_JONES] p_0/k_B:  70.14274 [K], p_1: 3.43845 [A], shift/k_B:  -0.15519979 [K], tailcorrection: no
     Ar -     CH3 [LENNARD_JONES] p_0/k_B:  70.14274 [K], p_1: 3.43845 [A], shift/k_B:  -0.15519979 [K], tailcorrection: no
     Ar -     CH2 [LENNARD_JONES] p_0/k_B:  70.14274 [K], p_1: 3.43845 [A], shift/k_B:  -0.15519979 [K], tailcorrection: no
     Ar -      CH [LENNARD_JONES] p_0/k_B:  70.14274 [K], p_1: 3.43845 [A], shift/k_B:  -0.15519979 [K], tailcorrection: no
     Ar -       C [LENNARD_JONES] p_0/k_B:  70.14274 [K], p_1: 3.43845 [A], shift/k_B:  -0.15519979 [K], tailcorrection: no
     Ar -      Hw [LENNARD_JONES] p_0/k_B:  45.40608 [K], p_1: 3.00855 [A], shift/k_B:  -0.04509434 [K], tailcorrection: no
     Ar -      Ow [LENNARD_JONES] p_0/k_B:  53.02294 [K], p_1: 3.28205 [A], shift/k_B:  -0.08874128 [K], tailcorrection: no
     Ar -     Cu1 [LENNARD_JONES] p_0/k_B:  15.30653 [K], p_1: 3.27985 [A], shift/k_B:  -0.02551480 [K], tailcorrection: no
     Ar -     Cu2 [LENNARD_JONES] p_0/k_B:  15.30653 [K], p_1: 3.27985 [A], shift/k_B:  -0.02551480 [K], tailcorrection: no
     Ar -     Cu3 [LENNARD_JONES] p_0/k_B:  15.30653 [K], p_1: 3.27985 [A], shift/k_B:  -0.02551480 [K], tailcorrection: no
     Ar -     Cu4 [LENNARD_JONES] p_0/k_B:  15.30653 [K], p_1: 3.27985 [A], shift/k_B:  -0.02551480 [K], tailcorrection: no
     Ar -     Cu5 [LENNARD_JONES] p_0/k_B:  15.30653 [K], p_1: 3.27985 [A], shift/k_B:  -0.02551480 [K], tailcorrection: no
     Ar -     Cu6 [LENNARD_JONES] p_0/k_B:  15.30653 [K], p_1: 3.27985 [A], shift/k_B:  -0.02551480 [K], tailcorrection: no
     Ar -     Cu7 [LENNARD_JONES] p_0/k_B:  15.30653 [K], p_1: 3.27985 [A], shift/k_B:  -0.02551480 [K], tailcorrection: no
     Ar -     Cu8 [LENNARD_JONES] p_0/k_B:  15.30653 [K], p_1: 3.27985 [A], shift/k_B:  -0.02551480 [K], tailcorrection: no
     Ar -     Cu9 [LENNARD_JONES] p_0/k_B:  15.30653 [K], p_1: 3.27985 [A], shift/k_B:  -0.02551480 [K], tailcorrection: no
     Ar -    Cu10 [LENNARD_JONES] p_0/k_B:  15.30653 [K], p_1: 3.27985 [A], shift/k_B:  -0.02551480 [K], tailcorrection: no
     Ar -      C1 [LENNARD_JONES] p_0/k_B:  70.14274 [K], p_1: 3.43845 [A], shift/k_B:  -0.15519979 [K], tailcorrection: no
     Ar -      C2 [LENNARD_JONES] p_0/k_B:  70.14274 [K], p_1: 3.43845 [A], shift/k_B:  -0.15519979 [K], tailcorrection: no
     Ar -      C3 [LENNARD_JONES] p_0/k_B:  70.14274 [K], p_1: 3.43845 [A], shift/k_B:  -0.15519979 [K], tailcorrection: no
     Ar -      C4 [LENNARD_JONES] p_0/k_B:  70.14274 [K], p_1: 3.43845 [A], shift/k_B:  -0.15519979 [K], tailcorrection: no
     Ar -      C5 [LENNARD_JONES] p_0/k_B:  70.14274 [K], p_1: 3.43845 [A], shift/k_B:  -0.15519979 [K], tailcorrection: no
     Ar -      C6 [LENNARD_JONES] p_0/k_B:  70.14274 [K], p_1: 3.43845 [A], shift/k_B:  -0.15519979 [K], tailcorrection: no
     Ar -      C7 [LENNARD_JONES] p_0/k_B:  70.14274 [K], p_1: 3.43845 [A], shift/k_B:  -0.15519979 [K], tailcorrection: no
     Ar -      C8 [LENNARD_JONES] p_0/k_B:  70.14274 [K], p_1: 3.43845 [A], shift/k_B:  -0.15519979 [K], tailcorrection: no
     Ar -      C9 [LENNARD_JONES] p_0/k_B:  70.14274 [K], p_1: 3.43845 [A], shift/k_B:  -0.15519979 [K], tailcorrection: no
     Ar -     C10 [LENNARD_JONES] p_0/k_B:  70.14274 [K], p_1: 3.43845 [A], shift/k_B:  -0.15519979 [K], tailcorrection: no
     Ar -     C11 [LENNARD_JONES] p_0/k_B:  70.14274 [K], p_1: 3.43845 [A], shift/k_B:  -0.15519979 [K], tailcorrection: no
     Ar -     C12 [LENNARD_JONES] p_0/k_B:  70.14274 [K], p_1: 3.43845 [A], shift/k_B:  -0.15519979 [K], tailcorrection: no
     Ar -      N1 [LENNARD_JONES] p_0/k_B:  56.86074 [K], p_1: 3.35335 [A], shift/k_B:  -0.10825587 [K], tailcorrection: no
     Ar -      N2 [LENNARD_JONES] p_0/k_B:  56.86074 [K], p_1: 3.35335 [A], shift/k_B:  -0.10825587 [K], tailcorrection: no
     Ar -      N3 [LENNARD_JONES] p_0/k_B:  56.86074 [K], p_1: 3.35335 [A], shift/k_B:  -0.10825587 [K], tailcorrection: no
     Ar -      N4 [LENNARD_JONES] p_0/k_B:  56.86074 [K], p_1: 3.35335 [A], shift/k_B:  -0.10825587 [K], tailcorrection: no
     Ar -      N5 [LENNARD_JONES] p_0/k_B:  56.86074 [K], p_1: 3.35335 [A], shift/k_B:  -0.10825587 [K], tailcorrection: no
     Ar -      N6 [LENNARD_JONES] p_0/k_B:  56.86074 [K], p_1: 3.35335 [A], shift/k_B:  -0.10825587 [K], tailcorrection: no
     Ar -      N7 [LENNARD_JONES] p_0/k_B:  56.86074 [K], p_1: 3.35335 [A], shift/k_B:  -0.10825587 [K], tailcorrection: no
     Ar -      N8 [LENNARD_JONES] p_0/k_B:  56.86074 [K], p_1: 3.35335 [A], shift/k_B:  -0.10825587 [K], tailcorrection: no
     Ar -      N9 [LENNARD_JONES] p_0/k_B:  56.86074 [K], p_1: 3.35335 [A], shift/k_B:  -0.10825587 [K], tailcorrection: no
     Ar -     N10 [LENNARD_JONES] p_0/k_B:  56.86074 [K], p_1: 3.35335 [A], shift/k_B:  -0.10825587 [K], tailcorrection: no
     Ar -     N11 [LENNARD_JONES] p_0/k_B:  56.86074 [K], p_1: 3.35335 [A], shift/k_B:  -0.10825587 [K], tailcorrection: no
     Ar -     N12 [LENNARD_JONES] p_0/k_B:  56.86074 [K], p_1: 3.35335 [A], shift/k_B:  -0.10825587 [K], tailcorrection: no
    CH4 -     CH4 [LENNARD_JONES] p_0/k_B:  52.84350 [K], p_1: 3.43090 [A], shift/k_B:  -0.11539186 [K], tailcorrection: no
    CH4 -     CH3 [LENNARD_JONES] p_0/k_B:  52.84350 [K], p_1: 3.43090 [A], shift/k_B:  -0.11539186 [K], tailcorrection: no
    CH4 -     CH2 [LENNARD_JONES] p_0/k_B:  52.84350 [K], p_1: 3.43090 [A], shift/k_B:  -0.11539186 [K], tailcorrection: no
    CH4 -      CH [LENNARD_JONES] p_0/k_B:  52.84350 [K], p_1: 3.43090 [A], shift/k_B:  -0.11539186 [K], tailcorrection: no
    CH4 -       C [LENNARD_JONES] p_0/k_B:  52.84350 [K], p_1: 3.43090 [A], shift/k_B:  -0.11539186 [K], tailcorrection: no
    CH4 -      Hw [LENNARD_JONES] p_0/k_B:  34.20762 [K], p_1: 3.00100 [A], shift/k_B:  -0.03346456 [K], tailcorrection: no
    CH4 -      Ow [LENNARD_JONES] p_0/k_B:  39.94594 [K], p_1: 3.27450 [A], shift/k_B:  -0.06593801 [K], tailcorrection: no
    CH4 -     Cu1 [LENNARD_JONES] p_0/k_B:  11.53150 [K], p_1: 3.27230 [A], shift/k_B:  -0.01895825 [K], tailcorrection: no
    CH4 -     Cu2 [LENNARD_JONES] p_0/k_B:  11.53150 [K], p_1: 3.27230 [A], shift/k_B:  -0.01895825 [K], tailcorrection: no
    CH4 -     Cu3 [LENNARD_JONES] p_0/k_B:  11.53150 [K], p_1: 3.27230 [A], shift/k_B:  -0.01895825 [K], tailcorrection: no
    CH4 -     Cu4 [LENNARD_JONES] p_0/k_B:  11.53150 [K], p_1: 3.27230 [A], shift/k_B:  -0.01895825 [K], tailcorrection: no
    CH4 -     Cu5 [LENNARD_JONES] p_0/k_B:  11.53150 [K], p_1: 3.27230 [A], shift/k_B:  -0.01895825 [K], tailcorrection: no
    CH4 -     Cu6 [LENNARD_JONES] p_0/k_B:  11.53150 [K], p_1: 3.27230 [A], shift/k_B:  -0.01895825 [K], tailcorrection: no
    CH4 -     Cu7 [LENNARD_JONES] p_0/k_B:  11.53150 [K], p_1: 3.27230 [A], shift/k_B:  -0.01895825 [K], tailcorrection: no
    CH4 -     Cu8 [LENNARD_JONES] p_0/k_B:  11.53150 [K], p_1: 3.27230 [A], shift/k_B:  -0.01895825 [K], tailcorrection: no
    CH4 -     Cu9 [LENNARD_JONES] p_0/k_B:  11.53150 [K], p_1: 3.27230 [A], shift/k_B:  -0.01895825 [K], tailcorrection: no
    CH4 -    Cu10 [LENNARD_JONES] p_0/k_B:  11.53150 [K], p_1: 3.27230 [A], shift/k_B:  -0.01895825 [K], tailcorrection: no
    CH4 -      C1 [LENNARD_JONES] p_0/k_B:  52.84350 [K], p_1: 3.43090 [A], shift/k_B:  -0.11539186 [K], tailcorrection: no
    CH4 -      C2 [LENNARD_JONES] p_0/k_B:  52.84350 [K], p_1: 3.43090 [A], shift/k_B:  -0.11539186 [K], tailcorrection: no
    CH4 -      C3 [LENNARD_JONES] p_0/k_B:  52.84350 [K], p_1: 3.43090 [A], shift/k_B:  -0.11539186 [K], tailcorrection: no
    CH4 -      C4 [LENNARD_JONES] p_0/k_B:  52.84350 [K], p_1: 3.43090 [A], shift/k_B:  -0.11539186 [K], tailcorrection: no
    CH4 -      C5 [LENNARD_JONES] p_0/k_B:  52.84350 [K], p_1: 3.43090 [A], shift/k_B:  -0.11539186 [K], tailcorrection: no
    CH4 -      C6 [LENNARD_JONES] p_0/k_B:  52.84350 [K], p_1: 3.43090 [A], shift/k_B:  -0.11539186 [K], tailcorrection: no
    CH4 -      C7 [LENNARD_JONES] p_0/k_B:  52.84350 [K], p_1: 3.43090 [A], shift/k_B:  -0.11539186 [K], tailcorrection: no
    CH4 -      C8 [LENNARD_JONES] p_0/k_B:  52.84350 [K], p_1: 3.43090 [A], shift/k_B:  -0.11539186 [K], tailcorrection: no
    CH4 -      C9 [LENNARD_JONES] p_0/k_B:  52.84350 [K], p_1: 3.43090 [A], shift/k_B:  -0.11539186 [K], tailcorrection: no
    CH4 -     C10 [LENNARD_JONES] p_0/k_B:  52.84350 [K], p_1: 3.43090 [A], shift/k_B:  -0.11539186 [K], tailcorrection: no
    CH4 -     C11 [LENNARD_JONES] p_0/k_B:  52.84350 [K], p_1: 3.43090 [A], shift/k_B:  -0.11539186 [K], tailcorrection: no
    CH4 -     C12 [LENNARD_JONES] p_0/k_B:  52.84350 [K], p_1: 3.43090 [A], shift/k_B:  -0.11539186 [K], tailcorrection: no
    CH4 -      N1 [LENNARD_JONES] p_0/k_B:  42.83722 [K], p_1: 3.34580 [A], shift/k_B:  -0.08046177 [K], tailcorrection: no
[...]
=======================================
	Block[ 0]            0.00000 [K]
	Block[ 1]            0.00000 [K]
	Block[ 2]            0.00000 [K]
	Block[ 3]            0.00000 [K]
	Block[ 4]            0.00000 [K]
	------------------------------------------------------------------------------
	Average              0.00000 [K] +/-            0.00000 [K]

Average Cation Bond-Bond cross term energy:
=================================================
	Block[ 0]            0.00000 [K]
	Block[ 1]            0.00000 [K]
	Block[ 2]            0.00000 [K]
	Block[ 3]            0.00000 [K]
	Block[ 4]            0.00000 [K]
	------------------------------------------------------------------------------
	Average              0.00000 [K] +/-            0.00000 [K]

Average Cation Bend-Bend cross term energy:
===========================================
	Block[ 0]            0.00000 [K]
	Block[ 1]            0.00000 [K]
	Block[ 2]            0.00000 [K]
	Block[ 3]            0.00000 [K]
	Block[ 4]            0.00000 [K]
	------------------------------------------------------------------------------
	Average              0.00000 [K] +/-            0.00000 [K]

Average Cation Bond-Bend cross term energy:
==============================================
	Block[ 0]            0.00000 [K]
	Block[ 1]            0.00000 [K]
	Block[ 2]            0.00000 [K]
	Block[ 3]            0.00000 [K]
	Block[ 4]            0.00000 [K]
	------------------------------------------------------------------------------
	Average              0.00000 [K] +/-            0.00000 [K]

Average Cation Bond-Torsion cross term energy:
==============================================
	Block[ 0]            0.00000 [K]
	Block[ 1]            0.00000 [K]
	Block[ 2]            0.00000 [K]
	Block[ 3]            0.00000 [K]
	Block[ 4]            0.00000 [K]
	------------------------------------------------------------------------------
	Average              0.00000 [K] +/-            0.00000 [K]

Average Cation Bend-Torsion cross term energy:
==============================================
	Block[ 0]            0.00000 [K]
	Block[ 1]            0.00000 [K]
	Block[ 2]            0.00000 [K]
	Block[ 3]            0.00000 [K]
	Block[ 4]            0.00000 [K]
	------------------------------------------------------------------------------
	Average              0.00000 [K] +/-            0.00000 [K]

Average Cation Intra Van der Waals energy:
==========================================
	Block[ 0]            0.00000 [K]
	Block[ 1]            0.00000 [K]
	Block[ 2]            0.00000 [K]
	Block[ 3]            0.00000 [K]
	Block[ 4]            0.00000 [K]
	------------------------------------------------------------------------------
	Average              0.00000 [K] +/-            0.00000 [K]

Average Cation Intra charge-charge Coulomb energy:
====================================
	Block[ 0]            0.00000 [K]
	Block[ 1]            0.00000 [K]
	Block[ 2]            0.00000 [K]
	Block[ 3]            0.00000 [K]
	Block[ 4]            0.00000 [K]
	------------------------------------------------------------------------------
	Average              0.00000 [K] +/-            0.00000 [K]

Average Cation Intra charge-bonddipole Coulomb energy:
====================================
	Block[ 0]            0.00000 [K]
	Block[ 1]            0.00000 [K]
	Block[ 2]            0.00000 [K]
	Block[ 3]            0.00000 [K]
	Block[ 4]            0.00000 [K]
	------------------------------------------------------------------------------
	Average              0.00000 [K] +/-            0.00000 [K]

Average Cation Intra bonddipole-bonddipole Coulomb energy:
====================================
	Block[ 0]            0.00000 [K]
	Block[ 1]            0.00000 [K]
	Block[ 2]            0.00000 [K]
	Block[ 3]            0.00000 [K]
	Block[ 4]            0.00000 [K]
	------------------------------------------------------------------------------
	Average              0.00000 [K] +/-            0.00000 [K]

Average Host-Host energy:
=========================
	Block[ 0] 0.00000            Van der Waals: 0.00000            Coulomb: 0.00000            [K]
	Block[ 1] 0.00000            Van der Waals: 0.00000            Coulomb: 0.00000            [K]
	Block[ 2] 0.00000            Van der Waals: 0.00000            Coulomb: 0.00000            [K]
	Block[ 3] 0.00000            Van der Waals: 0.00000            Coulomb: 0.00000            [K]
	Block[ 4] 0.00000            Van der Waals: 0.00000            Coulomb: 0.00000            [K]
	------------------------------------------------------------------------------
	Average   0.00000            Van der Waals: 0.000000           Coulomb: 0.00000            [K]
	      +/- 0.00000                       +/- 0.000000                +/- 0.00000            [K]

Average Adsorbate-Adsorbate energy:
===================================
	Block[ 0] 0.00000            Van der Waals: 0.00000            Coulomb: 0.00000            [K]
	Block[ 1] 0.00000            Van der Waals: 0.00000            Coulomb: 0.00000            [K]
	Block[ 2] 0.00000            Van der Waals: 0.00000            Coulomb: 0.00000            [K]
	Block[ 3] 0.00000            Van der Waals: 0.00000            Coulomb: 0.00000            [K]
	Block[ 4] 0.00000            Van der Waals: 0.00000            Coulomb: 0.00000            [K]
	------------------------------------------------------------------------------
	Average   0.00000            Van der Waals: 0.000000           Coulomb: 0.00000            [K]
	      +/- 0.00000                       +/- 0.000000                +/- 0.00000            [K]

Average Cation-Cation energy:
=============================
	Block[ 0] 0.00000            Van der Waals: 0.00000            Coulomb: 0.00000            [K]
	Block[ 1] 0.00000            Van der Waals: 0.00000            Coulomb: 0.00000            [K]
	Block[ 2] 0.00000            Van der Waals: 0.00000            Coulomb: 0.00000            [K]
	Block[ 3] 0.00000            Van der Waals: 0.00000            Coulomb: 0.00000            [K]
	Block[ 4] 0.00000            Van der Waals: 0.00000            Coulomb: 0.00000            [K]
	------------------------------------------------------------------------------
	Average   0.00000            Van der Waals: 0.000000           Coulomb: 0.00000            [K]
	      +/- 0.00000                       +/- 0.000000                +/- 0.00000            [K]

Average Host-Adsorbate energy:
==============================
	Block[ 0] 0.00000            Van der Waals: 0.00000            Coulomb: 0.00000            [K]
	Block[ 1] 0.00000            Van der Waals: 0.00000            Coulomb: 0.00000            [K]
	Block[ 2] 0.00000            Van der Waals: 0.00000            Coulomb: 0.00000            [K]
	Block[ 3] 0.00000            Van der Waals: 0.00000            Coulomb: 0.00000            [K]
	Block[ 4] 0.00000            Van der Waals: 0.00000            Coulomb: 0.00000            [K]
	------------------------------------------------------------------------------
	Average   0.00000            Van der Waals: 0.000000           Coulomb: 0.00000            [K]
	      +/- 0.00000                       +/- 0.000000                +/- 0.00000            [K]

Average Host-Cation energy:
===========================
	Block[ 0] 0.00000            Van der Waals: 0.00000            Coulomb: 0.00000            [K]
	Block[ 1] 0.00000            Van der Waals: 0.00000            Coulomb: 0.00000            [K]
	Block[ 2] 0.00000            Van der Waals: 0.00000            Coulomb: 0.00000            [K]
	Block[ 3] 0.00000            Van der Waals: 0.00000            Coulomb: 0.00000            [K]
	Block[ 4] 0.00000            Van der Waals: 0.00000            Coulomb: 0.00000            [K]
	------------------------------------------------------------------------------
	Average   0.00000            Van der Waals: 0.000000           Coulomb: 0.00000            [K]
	      +/- 0.00000                       +/- 0.000000                +/- 0.00000            [K]

Average Adsorbate-Cation energy:
================================
	Block[ 0] 0.00000            Van der Waals: 0.00000            Coulomb: 0.00000            [K]
	Block[ 1] 0.00000            Van der Waals: 0.00000            Coulomb: 0.00000            [K]
	Block[ 2] 0.00000            Van der Waals: 0.00000            Coulomb: 0.00000            [K]
	Block[ 3] 0.00000            Van der Waals: 0.00000            Coulomb: 0.00000            [K]
	Block[ 4] 0.00000            Van der Waals: 0.00000            Coulomb: 0.00000            [K]
	------------------------------------------------------------------------------
	Average   0.00000            Van der Waals: 0.000000           Coulomb: 0.00000            [K]
	      +/- 0.00000                       +/- 0.000000                +/- 0.00000            [K]

Host polarization energy:
=======================
	Block[ 0]            0.00000 [K]
	Block[ 1]            0.00000 [K]
	Block[ 2]            0.00000 [K]
	Block[ 3]            0.00000 [K]
	Block[ 4]            0.00000 [K]
	------------------------------------------------------------------------------
	Average              0.00000 [K] +/-            0.00000 [K]

Adsorbate polarization energy:
=======================
	Block[ 0]            0.00000 [K]
	Block[ 1]            0.00000 [K]
	Block[ 2]            0.00000 [K]
	Block[ 3]            0.00000 [K]
	Block[ 4]            0.00000 [K]
	------------------------------------------------------------------------------
	Average              0.00000 [K] +/-            0.00000 [K]

Cation polarization energy:
=======================
	Block[ 0]            0.00000 [K]
	Block[ 1]            0.00000 [K]
	Block[ 2]            0.00000 [K]
	Block[ 3]            0.00000 [K]
	Block[ 4]            0.00000 [K]
	------------------------------------------------------------------------------
	Average              0.00000 [K] +/-            0.00000 [K]

Host back-polarization energy:
=======================
	Block[ 0]            0.00000 [K]
	Block[ 1]            0.00000 [K]
	Block[ 2]            0.00000 [K]
	Block[ 3]            0.00000 [K]
	Block[ 4]            0.00000 [K]
	------------------------------------------------------------------------------
	Average              0.00000 [K] +/-            0.00000 [K]

Adsorbate back-polarization energy:
=======================
	Block[ 0]            0.00000 [K]
	Block[ 1]            0.00000 [K]
	Block[ 2]            0.00000 [K]
	Block[ 3]            0.00000 [K]
	Block[ 4]            0.00000 [K]
	------------------------------------------------------------------------------
	Average              0.00000 [K] +/-            0.00000 [K]

Cation back-polarization energy:
=======================
	Block[ 0]            0.00000 [K]
	Block[ 1]            0.00000 [K]
	Block[ 2]            0.00000 [K]
	Block[ 3]            0.00000 [K]
	Block[ 4]            0.00000 [K]
	------------------------------------------------------------------------------
	Average              0.00000 [K] +/-            0.00000 [K]

Tail-correction energy:
=======================
	Block[ 0]            0.00000 [K]
	Block[ 1]            0.00000 [K]
	Block[ 2]            0.00000 [K]
	Block[ 3]            0.00000 [K]
	Block[ 4]            0.00000 [K]
	------------------------------------------------------------------------------
	Average              0.00000 [K] +/-            0.00000 [K]

Distance-constraints energy:
=======================
	Block[ 0]            0.00000 [K]
	Block[ 1]            0.00000 [K]
	Block[ 2]            0.00000 [K]
	Block[ 3]            0.00000 [K]
	Block[ 4]            0.00000 [K]
	------------------------------------------------------------------------------
	Average              0.00000 [K] +/-            0.00000 [K]

Angle-constraints energy:
=======================
	Block[ 0]            0.00000 [K]
	Block[ 1]            0.00000 [K]
	Block[ 2]            0.00000 [K]
	Block[ 3]            0.00000 [K]
	Block[ 4]            0.00000 [K]
	------------------------------------------------------------------------------
	Average              0.00000 [K] +/-            0.00000 [K]

Dihedral-constraints energy:
=======================
	Block[ 0]            0.00000 [K]
	Block[ 1]            0.00000 [K]
	Block[ 2]            0.00000 [K]
	Block[ 3]            0.00000 [K]
	Block[ 4]            0.00000 [K]
	------------------------------------------------------------------------------
	Average              0.00000 [K] +/-            0.00000 [K]

Inversion-bend constraints energy:
=======================
	Block[ 0]            0.00000 [K]
	Block[ 1]            0.00000 [K]
	Block[ 2]            0.00000 [K]
	Block[ 3]            0.00000 [K]
	Block[ 4]            0.00000 [K]
	------------------------------------------------------------------------------
	Average              0.00000 [K] +/-            0.00000 [K]

Out-of-plane-distance constraints energy:
=======================
	Block[ 0]            0.00000 [K]
	Block[ 1]            0.00000 [K]
	Block[ 2]            0.00000 [K]
	Block[ 3]            0.00000 [K]
	Block[ 4]            0.00000 [K]
	------------------------------------------------------------------------------
	Average              0.00000 [K] +/-            0.00000 [K]

Exclusion-constraints energy:
=======================
	Block[ 0]            0.00000 [K]
	Block[ 1]            0.00000 [K]
	Block[ 2]            0.00000 [K]
	Block[ 3]            0.00000 [K]
	Block[ 4]            0.00000 [K]
	------------------------------------------------------------------------------
	Average              0.00000 [K] +/-            0.00000 [K]

Total energy:
=============
	Block[ 0]            0.00000 [K]
	Block[ 1]            0.00000 [K]
	Block[ 2]            0.00000 [K]
	Block[ 3]            0.00000 [K]
	Block[ 4]            0.00000 [K]
	------------------------------------------------------------------------------
	Average              0.00000 [K] +/-            0.00000 [K]

Number of molecules:
====================

Component 0 [CO2]
-------------------------------------------------------------
	Block[ 0] 0.00000            [-]
	Block[ 1] 0.00000            [-]
	Block[ 2] 0.00000            [-]
	Block[ 3] 0.00000            [-]
	Block[ 4] 0.00000            [-]
	------------------------------------------------------------------------------
	Average loading absolute                              0.0000000000 +/-       0.0000000000 [-]
	Average loading absolute [molecules/unit cell]        0.0000000000 +/-       0.0000000000 [-]
	Average loading absolute [mol/kg framework]                  0.0000000000 +/-       0.0000000000 [-]
	Average loading absolute [milligram/gram framework]          0.0000000000 +/-       0.0000000000 [-]
	Average loading absolute [cm^3 (STP)/gr framework]           0.0000000000 +/-       0.0000000000 [-]
	Average loading absolute [cm^3 (STP)/cm^3 framework]         0.0000000000 +/-       0.0000000000 [-]

	Block[ 0] 0.00000            [-]
	Block[ 1] 0.00000            [-]
	Block[ 2] 0.00000            [-]
	Block[ 3] 0.00000            [-]
	Block[ 4] 0.00000            [-]
	------------------------------------------------------------------------------
	Average loading excess                              0.0000000000 +/-       0.0000000000 [-]
	Average loading excess [molecules/unit cell]        0.0000000000 +/-       0.0000000000 [-]
	Average loading excess [mol/kg framework]                    0.0000000000 +/-       0.0000000000 [-]
	Average loading excess [milligram/gram framework]            0.0000000000 +/-       0.0000000000 [-]
	Average loading excess [cm^3 (STP)/gr framework]             0.0000000000 +/-       0.0000000000 [-]
	Average loading excess [cm^3 (STP)/cm^3 framework]           0.0000000000 +/-       0.0000000000 [-]


Average Widom Rosenbluth factor:
================================
	Block[ 0] 4.29128 [-]
	Block[ 1] 4.28186 [-]
	Block[ 2] 4.26811 [-]
	Block[ 3] 4.27859 [-]
	Block[ 4] 4.25449 [-]
	------------------------------------------------------------------------------
	[CO2] Average Widom Rosenbluth-weight:   4.27486 +/- 0.017482 [-]

Average Widom chemical potential:
=================================
	Block[ 0] -3466.38 [-]
	Block[ 1] -3465.72 [-]
	Block[ 2] -3464.76 [-]
	Block[ 3] -3465.49 [-]
	Block[ 4] -3463.81 [-]
	------------------------------------------------------------------------------
	[CO2] Average chemical potential:   -3465.23 +/- 1.219388 [K]

Average Widom Ideal-gas contribution:
=====================================
	Block[ 0] -3032.31 [-]
	Block[ 1] -3032.31 [-]
	Block[ 2] -3032.31 [-]
	Block[ 3] -3032.31 [-]
	Block[ 4] -3032.31 [-]
	------------------------------------------------------------------------------
	[CO2] Average Widom Ideal-gas chemical potential:   -3032.31 +/- 0.000060 [-]

Average Widom excess contribution:
==================================
	Block[ 0] -434.063 [-]
	Block[ 1] -433.408 [-]
	Block[ 2] -432.449 [-]
	Block[ 3] -433.18 [-]
	Block[ 4] -431.497 [-]
	------------------------------------------------------------------------------
	[CO2] Average Widom excess chemical potential:   -432.919 +/- 1.219388 [-]

Average Gibbs Widom Rosenbluth factor:
======================================
	Block[ 0] 0 [-]
	Block[ 1] 0 [-]
	Block[ 2] 0 [-]
	Block[ 3] 0 [-]
	Block[ 4] 0 [-]
	------------------------------------------------------------------------------
	[CO2] Average Gibbs Widom Rosenbluth-weight:   0 +/- 0.000000 [-]

Average Gibbs Widom chemical potential:
=======================================
	Block[ 0] 0 [-]
	Block[ 1] 0 [-]
	Block[ 2] 0 [-]
	Block[ 3] 0 [-]
	Block[ 4] 0 [-]
	------------------------------------------------------------------------------
	[CO2] Average Gibbs chemical potential:   0 +/- 0.000000 [K]

Average osmostat calibration for alchemical transformation:
=======================================
	Block[ 0] 0 [-]
	Block[ 1] 0 [-]
	Block[ 2] 0 [-]
	Block[ 3] 0 [-]
	Block[ 4] 0 [-]
	------------------------------------------------------------------------------
	Average osmostat calibration for alchemical transformation:   0 +/- 0.000000 [K]
	Average osmostat calibration for alchemical transformation:   0 +/- 0.000000 [kJ/mol]

Average Gibbs Widom Ideal-gas contribution:
===========================================
	Block[ 0] 0 [-]
	Block[ 1] 0 [-]
	Block[ 2] 0 [-]
	Block[ 3] 0 [-]
	Block[ 4] 0 [-]
	------------------------------------------------------------------------------
	[CO2] Average Gibbs Ideal-gas chemical potential:   0 +/- 0.000000 [-]

Average Gibbs Widom excess contribution:
===========================================
	Block[ 0] 0 [-]
	Block[ 1] 0 [-]
	Block[ 2] 0 [-]
	Block[ 3] 0 [-]
	Block[ 4] 0 [-]
	------------------------------------------------------------------------------
	[CO2] Average Gibbs excess chemical potential:   0 +/- 0.000000 [-]

Average Henry coefficient:
==========================
	Block[ 0] 1.60524e-06 [mol/kg/Pa]
	Block[ 1] 1.60171e-06 [mol/kg/Pa]
	Block[ 2] 1.59657e-06 [mol/kg/Pa]
	Block[ 3] 1.60049e-06 [mol/kg/Pa]
	Block[ 4] 1.59147e-06 [mol/kg/Pa]
	------------------------------------------------------------------------------
	[CO2] Average Henry coefficient:  1.5991e-06 +/- 6.53949e-09 [mol/kg/Pa]

Average adsorption energy <U_gh>_1-<U_h>_0 obtained from Widom-insertion:
(Note: the total heat of adsorption is dH=<U_gh>_1-<U_h>_0 - <U_g> - RT)
=========================================================================
	Block[ 0] -1002.2138369686   [K]
	Block[ 1] -1001.4660465993   [K]
	Block[ 2] -1000.6686895065   [K]
	Block[ 3] -1001.9874184029   [K]
	Block[ 4] -1002.0692307668   [K]
	------------------------------------------------------------------------------
	[CO2] Average  <U_gh>_1-<U_h>_0:    -1001.6810444488 +/-       0.7850506628 [K]       (     -8.3284419041 +/-       0.0065272762 kJ/mol)

Simulation finished,  0 warnings


Wed Aug 28 22:13:48 2024
Simulation finished on Wednesday, August 28.
The end time was 10:13 PM.

